+ 0.5 0 1 tcp 40 ------- 1 0.0 1.0 0 0
- 0.5 0 1 tcp 40 ------- 1 0.0 1.0 0 0
r 0.502064 0 1 tcp 40 ------- 1 0.0 1.0 0 0
+ 0.502064 1 0 ack 40 ------- 1 1.0 0.0 0 1
- 0.502064 1 0 ack 40 ------- 1 1.0 0.0 0 1
r 0.504128 1 0 ack 40 ------- 1 1.0 0.0 0 1
+ 0.504128 0 1 tcp 1040 ------- 1 0.0 1.0 1 2
- 0.504128 0 1 tcp 1040 ------- 1 0.0 1.0 1 2
r 0.507792 0 1 tcp 1040 ------- 1 0.0 1.0 1 2
+ 0.507792 1 0 ack 40 ------- 1 1.0 0.0 1 3
- 0.507792 1 0 ack 40 ------- 1 1.0 0.0 1 3
r 0.509856 1 0 ack 40 ------- 1 1.0 0.0 1 3
+ 0.509856 0 1 tcp 1040 ------- 1 0.0 1.0 2 4
- 0.509856 0 1 tcp 1040 ------- 1 0.0 1.0 2 4
r 0.51352 0 1 tcp 1040 ------- 1 0.0 1.0 2 4
+ 0.51352 1 0 ack 40 ------- 1 1.0 0.0 2 5
- 0.51352 1 0 ack 40 ------- 1 1.0 0.0 2 5
r 0.515584 1 0 ack 40 ------- 1 1.0 0.0 2 5
+ 0.515584 0 1 tcp 1040 ------- 1 0.0 1.0 3 6
- 0.515584 0 1 tcp 1040 ------- 1 0.0 1.0 3 6
r 0.519248 0 1 tcp 1040 ------- 1 0.0 1.0 3 6
+ 0.519248 1 0 ack 40 ------- 1 1.0 0.0 3 7
- 0.519248 1 0 ack 40 ------- 1 1.0 0.0 3 7
r 0.521312 1 0 ack 40 ------- 1 1.0 0.0 3 7
+ 0.521312 0 1 tcp 1040 ------- 1 0.0 1.0 4 8
- 0.521312 0 1 tcp 1040 ------- 1 0.0 1.0 4 8
r 0.524976 0 1 tcp 1040 ------- 1 0.0 1.0 4 8
+ 0.524976 1 0 ack 40 ------- 1 1.0 0.0 4 9
- 0.524976 1 0 ack 40 ------- 1 1.0 0.0 4 9
r 0.52704 1 0 ack 40 ------- 1 1.0 0.0 4 9
+ 0.52704 0 1 tcp 1040 ------- 1 0.0 1.0 5 10
- 0.52704 0 1 tcp 1040 ------- 1 0.0 1.0 5 10
r 0.530704 0 1 tcp 1040 ------- 1 0.0 1.0 5 10
+ 0.530704 1 0 ack 40 ------- 1 1.0 0.0 5 11
- 0.530704 1 0 ack 40 ------- 1 1.0 0.0 5 11
r 0.532768 1 0 ack 40 ------- 1 1.0 0.0 5 11
+ 0.532768 0 1 tcp 1040 ------- 1 0.0 1.0 6 12
- 0.532768 0 1 tcp 1040 ------- 1 0.0 1.0 6 12
r 0.536432 0 1 tcp 1040 ------- 1 0.0 1.0 6 12
+ 0.536432 1 0 ack 40 ------- 1 1.0 0.0 6 13
- 0.536432 1 0 ack 40 ------- 1 1.0 0.0 6 13
r 0.538496 1 0 ack 40 ------- 1 1.0 0.0 6 13
+ 0.538496 0 1 tcp 1040 ------- 1 0.0 1.0 7 14
- 0.538496 0 1 tcp 1040 ------- 1 0.0 1.0 7 14
r 0.54216 0 1 tcp 1040 ------- 1 0.0 1.0 7 14
+ 0.54216 1 0 ack 40 ------- 1 1.0 0.0 7 15
- 0.54216 1 0 ack 40 ------- 1 1.0 0.0 7 15
r 0.544224 1 0 ack 40 ------- 1 1.0 0.0 7 15
+ 0.544224 0 1 tcp 1040 ------- 1 0.0 1.0 8 16
- 0.544224 0 1 tcp 1040 ------- 1 0.0 1.0 8 16
r 0.547888 0 1 tcp 1040 ------- 1 0.0 1.0 8 16
+ 0.547888 1 0 ack 40 ------- 1 1.0 0.0 8 17
- 0.547888 1 0 ack 40 ------- 1 1.0 0.0 8 17
r 0.549952 1 0 ack 40 ------- 1 1.0 0.0 8 17
+ 0.549952 0 1 tcp 1040 ------- 1 0.0 1.0 9 18
- 0.549952 0 1 tcp 1040 ------- 1 0.0 1.0 9 18
r 0.553616 0 1 tcp 1040 ------- 1 0.0 1.0 9 18
+ 0.553616 1 0 ack 40 ------- 1 1.0 0.0 9 19
- 0.553616 1 0 ack 40 ------- 1 1.0 0.0 9 19
r 0.55568 1 0 ack 40 ------- 1 1.0 0.0 9 19
+ 0.55568 0 1 tcp 1040 ------- 1 0.0 1.0 10 20
- 0.55568 0 1 tcp 1040 ------- 1 0.0 1.0 10 20
r 0.559344 0 1 tcp 1040 ------- 1 0.0 1.0 10 20
+ 0.559344 1 0 ack 40 ------- 1 1.0 0.0 10 21
- 0.559344 1 0 ack 40 ------- 1 1.0 0.0 10 21
r 0.561408 1 0 ack 40 ------- 1 1.0 0.0 10 21
+ 0.561408 0 1 tcp 1040 ------- 1 0.0 1.0 11 22
- 0.561408 0 1 tcp 1040 ------- 1 0.0 1.0 11 22
r 0.565072 0 1 tcp 1040 ------- 1 0.0 1.0 11 22
+ 0.565072 1 0 ack 40 ------- 1 1.0 0.0 11 23
- 0.565072 1 0 ack 40 ------- 1 1.0 0.0 11 23
r 0.567136 1 0 ack 40 ------- 1 1.0 0.0 11 23
+ 0.567136 0 1 tcp 1040 ------- 1 0.0 1.0 12 24
- 0.567136 0 1 tcp 1040 ------- 1 0.0 1.0 12 24
r 0.5708 0 1 tcp 1040 ------- 1 0.0 1.0 12 24
+ 0.5708 1 0 ack 40 ------- 1 1.0 0.0 12 25
- 0.5708 1 0 ack 40 ------- 1 1.0 0.0 12 25
r 0.572864 1 0 ack 40 ------- 1 1.0 0.0 12 25
+ 0.572864 0 1 tcp 1040 ------- 1 0.0 1.0 13 26
- 0.572864 0 1 tcp 1040 ------- 1 0.0 1.0 13 26
r 0.576528 0 1 tcp 1040 ------- 1 0.0 1.0 13 26
+ 0.576528 1 0 ack 40 ------- 1 1.0 0.0 13 27
- 0.576528 1 0 ack 40 ------- 1 1.0 0.0 13 27
r 0.578592 1 0 ack 40 ------- 1 1.0 0.0 13 27
+ 0.578592 0 1 tcp 1040 ------- 1 0.0 1.0 14 28
- 0.578592 0 1 tcp 1040 ------- 1 0.0 1.0 14 28
r 0.582256 0 1 tcp 1040 ------- 1 0.0 1.0 14 28
+ 0.582256 1 0 ack 40 ------- 1 1.0 0.0 14 29
- 0.582256 1 0 ack 40 ------- 1 1.0 0.0 14 29
r 0.58432 1 0 ack 40 ------- 1 1.0 0.0 14 29
+ 0.58432 0 1 tcp 1040 ------- 1 0.0 1.0 15 30
- 0.58432 0 1 tcp 1040 ------- 1 0.0 1.0 15 30
r 0.587984 0 1 tcp 1040 ------- 1 0.0 1.0 15 30
+ 0.587984 1 0 ack 40 ------- 1 1.0 0.0 15 31
- 0.587984 1 0 ack 40 ------- 1 1.0 0.0 15 31
r 0.590048 1 0 ack 40 ------- 1 1.0 0.0 15 31
+ 0.590048 0 1 tcp 1040 ------- 1 0.0 1.0 16 32
- 0.590048 0 1 tcp 1040 ------- 1 0.0 1.0 16 32
r 0.593712 0 1 tcp 1040 ------- 1 0.0 1.0 16 32
+ 0.593712 1 0 ack 40 ------- 1 1.0 0.0 16 33
- 0.593712 1 0 ack 40 ------- 1 1.0 0.0 16 33
r 0.595776 1 0 ack 40 ------- 1 1.0 0.0 16 33
+ 0.595776 0 1 tcp 1040 ------- 1 0.0 1.0 17 34
- 0.595776 0 1 tcp 1040 ------- 1 0.0 1.0 17 34
r 0.59944 0 1 tcp 1040 ------- 1 0.0 1.0 17 34
+ 0.59944 1 0 ack 40 ------- 1 1.0 0.0 17 35
- 0.59944 1 0 ack 40 ------- 1 1.0 0.0 17 35
r 0.601504 1 0 ack 40 ------- 1 1.0 0.0 17 35
+ 0.601504 0 1 tcp 1040 ------- 1 0.0 1.0 18 36
- 0.601504 0 1 tcp 1040 ------- 1 0.0 1.0 18 36
r 0.605168 0 1 tcp 1040 ------- 1 0.0 1.0 18 36
+ 0.605168 1 0 ack 40 ------- 1 1.0 0.0 18 37
- 0.605168 1 0 ack 40 ------- 1 1.0 0.0 18 37
r 0.607232 1 0 ack 40 ------- 1 1.0 0.0 18 37
+ 0.607232 0 1 tcp 1040 ------- 1 0.0 1.0 19 38
- 0.607232 0 1 tcp 1040 ------- 1 0.0 1.0 19 38
r 0.610896 0 1 tcp 1040 ------- 1 0.0 1.0 19 38
+ 0.610896 1 0 ack 40 ------- 1 1.0 0.0 19 39
- 0.610896 1 0 ack 40 ------- 1 1.0 0.0 19 39
r 0.61296 1 0 ack 40 ------- 1 1.0 0.0 19 39
+ 0.61296 0 1 tcp 1040 ------- 1 0.0 1.0 20 40
- 0.61296 0 1 tcp 1040 ------- 1 0.0 1.0 20 40
r 0.616624 0 1 tcp 1040 ------- 1 0.0 1.0 20 40
+ 0.616624 1 0 ack 40 ------- 1 1.0 0.0 20 41
- 0.616624 1 0 ack 40 ------- 1 1.0 0.0 20 41
r 0.618688 1 0 ack 40 ------- 1 1.0 0.0 20 41
+ 0.618688 0 1 tcp 1040 ------- 1 0.0 1.0 21 42
- 0.618688 0 1 tcp 1040 ------- 1 0.0 1.0 21 42
r 0.622352 0 1 tcp 1040 ------- 1 0.0 1.0 21 42
+ 0.622352 1 0 ack 40 ------- 1 1.0 0.0 21 43
- 0.622352 1 0 ack 40 ------- 1 1.0 0.0 21 43
r 0.624416 1 0 ack 40 ------- 1 1.0 0.0 21 43
+ 0.624416 0 1 tcp 1040 ------- 1 0.0 1.0 22 44
- 0.624416 0 1 tcp 1040 ------- 1 0.0 1.0 22 44
r 0.62808 0 1 tcp 1040 ------- 1 0.0 1.0 22 44
+ 0.62808 1 0 ack 40 ------- 1 1.0 0.0 22 45
- 0.62808 1 0 ack 40 ------- 1 1.0 0.0 22 45
r 0.630144 1 0 ack 40 ------- 1 1.0 0.0 22 45
+ 0.630144 0 1 tcp 1040 ------- 1 0.0 1.0 23 46
- 0.630144 0 1 tcp 1040 ------- 1 0.0 1.0 23 46
r 0.633808 0 1 tcp 1040 ------- 1 0.0 1.0 23 46
+ 0.633808 1 0 ack 40 ------- 1 1.0 0.0 23 47
- 0.633808 1 0 ack 40 ------- 1 1.0 0.0 23 47
r 0.635872 1 0 ack 40 ------- 1 1.0 0.0 23 47
+ 0.635872 0 1 tcp 1040 ------- 1 0.0 1.0 24 48
- 0.635872 0 1 tcp 1040 ------- 1 0.0 1.0 24 48
r 0.639536 0 1 tcp 1040 ------- 1 0.0 1.0 24 48
+ 0.639536 1 0 ack 40 ------- 1 1.0 0.0 24 49
- 0.639536 1 0 ack 40 ------- 1 1.0 0.0 24 49
r 0.6416 1 0 ack 40 ------- 1 1.0 0.0 24 49
+ 0.6416 0 1 tcp 1040 ------- 1 0.0 1.0 25 50
- 0.6416 0 1 tcp 1040 ------- 1 0.0 1.0 25 50
r 0.645264 0 1 tcp 1040 ------- 1 0.0 1.0 25 50
+ 0.645264 1 0 ack 40 ------- 1 1.0 0.0 25 51
- 0.645264 1 0 ack 40 ------- 1 1.0 0.0 25 51
r 0.647328 1 0 ack 40 ------- 1 1.0 0.0 25 51
+ 0.647328 0 1 tcp 1040 ------- 1 0.0 1.0 26 52
- 0.647328 0 1 tcp 1040 ------- 1 0.0 1.0 26 52
r 0.650992 0 1 tcp 1040 ------- 1 0.0 1.0 26 52
+ 0.650992 1 0 ack 40 ------- 1 1.0 0.0 26 53
- 0.650992 1 0 ack 40 ------- 1 1.0 0.0 26 53
r 0.653056 1 0 ack 40 ------- 1 1.0 0.0 26 53
+ 0.653056 0 1 tcp 1040 ------- 1 0.0 1.0 27 54
- 0.653056 0 1 tcp 1040 ------- 1 0.0 1.0 27 54
r 0.65672 0 1 tcp 1040 ------- 1 0.0 1.0 27 54
+ 0.65672 1 0 ack 40 ------- 1 1.0 0.0 27 55
- 0.65672 1 0 ack 40 ------- 1 1.0 0.0 27 55
r 0.658784 1 0 ack 40 ------- 1 1.0 0.0 27 55
+ 0.658784 0 1 tcp 1040 ------- 1 0.0 1.0 28 56
- 0.658784 0 1 tcp 1040 ------- 1 0.0 1.0 28 56
r 0.662448 0 1 tcp 1040 ------- 1 0.0 1.0 28 56
+ 0.662448 1 0 ack 40 ------- 1 1.0 0.0 28 57
- 0.662448 1 0 ack 40 ------- 1 1.0 0.0 28 57
r 0.664512 1 0 ack 40 ------- 1 1.0 0.0 28 57
+ 0.664512 0 1 tcp 1040 ------- 1 0.0 1.0 29 58
- 0.664512 0 1 tcp 1040 ------- 1 0.0 1.0 29 58
r 0.668176 0 1 tcp 1040 ------- 1 0.0 1.0 29 58
+ 0.668176 1 0 ack 40 ------- 1 1.0 0.0 29 59
- 0.668176 1 0 ack 40 ------- 1 1.0 0.0 29 59
r 0.67024 1 0 ack 40 ------- 1 1.0 0.0 29 59
+ 0.67024 0 1 tcp 1040 ------- 1 0.0 1.0 30 60
- 0.67024 0 1 tcp 1040 ------- 1 0.0 1.0 30 60
r 0.673904 0 1 tcp 1040 ------- 1 0.0 1.0 30 60
+ 0.673904 1 0 ack 40 ------- 1 1.0 0.0 30 61
- 0.673904 1 0 ack 40 ------- 1 1.0 0.0 30 61
r 0.675968 1 0 ack 40 ------- 1 1.0 0.0 30 61
+ 0.675968 0 1 tcp 1040 ------- 1 0.0 1.0 31 62
- 0.675968 0 1 tcp 1040 ------- 1 0.0 1.0 31 62
r 0.679632 0 1 tcp 1040 ------- 1 0.0 1.0 31 62
+ 0.679632 1 0 ack 40 ------- 1 1.0 0.0 31 63
- 0.679632 1 0 ack 40 ------- 1 1.0 0.0 31 63
r 0.681696 1 0 ack 40 ------- 1 1.0 0.0 31 63
+ 0.681696 0 1 tcp 1040 ------- 1 0.0 1.0 32 64
- 0.681696 0 1 tcp 1040 ------- 1 0.0 1.0 32 64
r 0.68536 0 1 tcp 1040 ------- 1 0.0 1.0 32 64
+ 0.68536 1 0 ack 40 ------- 1 1.0 0.0 32 65
- 0.68536 1 0 ack 40 ------- 1 1.0 0.0 32 65
r 0.687424 1 0 ack 40 ------- 1 1.0 0.0 32 65
+ 0.687424 0 1 tcp 1040 ------- 1 0.0 1.0 33 66
- 0.687424 0 1 tcp 1040 ------- 1 0.0 1.0 33 66
r 0.691088 0 1 tcp 1040 ------- 1 0.0 1.0 33 66
+ 0.691088 1 0 ack 40 ------- 1 1.0 0.0 33 67
- 0.691088 1 0 ack 40 ------- 1 1.0 0.0 33 67
r 0.693152 1 0 ack 40 ------- 1 1.0 0.0 33 67
+ 0.693152 0 1 tcp 1040 ------- 1 0.0 1.0 34 68
- 0.693152 0 1 tcp 1040 ------- 1 0.0 1.0 34 68
r 0.696816 0 1 tcp 1040 ------- 1 0.0 1.0 34 68
+ 0.696816 1 0 ack 40 ------- 1 1.0 0.0 34 69
- 0.696816 1 0 ack 40 ------- 1 1.0 0.0 34 69
r 0.69888 1 0 ack 40 ------- 1 1.0 0.0 34 69
+ 0.69888 0 1 tcp 1040 ------- 1 0.0 1.0 35 70
- 0.69888 0 1 tcp 1040 ------- 1 0.0 1.0 35 70
r 0.702544 0 1 tcp 1040 ------- 1 0.0 1.0 35 70
+ 0.702544 1 0 ack 40 ------- 1 1.0 0.0 35 71
- 0.702544 1 0 ack 40 ------- 1 1.0 0.0 35 71
r 0.704608 1 0 ack 40 ------- 1 1.0 0.0 35 71
+ 0.704608 0 1 tcp 1040 ------- 1 0.0 1.0 36 72
- 0.704608 0 1 tcp 1040 ------- 1 0.0 1.0 36 72
r 0.708272 0 1 tcp 1040 ------- 1 0.0 1.0 36 72
+ 0.708272 1 0 ack 40 ------- 1 1.0 0.0 36 73
- 0.708272 1 0 ack 40 ------- 1 1.0 0.0 36 73
r 0.710336 1 0 ack 40 ------- 1 1.0 0.0 36 73
+ 0.710336 0 1 tcp 1040 ------- 1 0.0 1.0 37 74
- 0.710336 0 1 tcp 1040 ------- 1 0.0 1.0 37 74
r 0.714 0 1 tcp 1040 ------- 1 0.0 1.0 37 74
+ 0.714 1 0 ack 40 ------- 1 1.0 0.0 37 75
- 0.714 1 0 ack 40 ------- 1 1.0 0.0 37 75
r 0.716064 1 0 ack 40 ------- 1 1.0 0.0 37 75
+ 0.716064 0 1 tcp 1040 ------- 1 0.0 1.0 38 76
- 0.716064 0 1 tcp 1040 ------- 1 0.0 1.0 38 76
r 0.719728 0 1 tcp 1040 ------- 1 0.0 1.0 38 76
+ 0.719728 1 0 ack 40 ------- 1 1.0 0.0 38 77
- 0.719728 1 0 ack 40 ------- 1 1.0 0.0 38 77
r 0.721792 1 0 ack 40 ------- 1 1.0 0.0 38 77
+ 0.721792 0 1 tcp 1040 ------- 1 0.0 1.0 39 78
- 0.721792 0 1 tcp 1040 ------- 1 0.0 1.0 39 78
r 0.725456 0 1 tcp 1040 ------- 1 0.0 1.0 39 78
+ 0.725456 1 0 ack 40 ------- 1 1.0 0.0 39 79
- 0.725456 1 0 ack 40 ------- 1 1.0 0.0 39 79
r 0.72752 1 0 ack 40 ------- 1 1.0 0.0 39 79
+ 0.72752 0 1 tcp 1040 ------- 1 0.0 1.0 40 80
- 0.72752 0 1 tcp 1040 ------- 1 0.0 1.0 40 80
r 0.731184 0 1 tcp 1040 ------- 1 0.0 1.0 40 80
+ 0.731184 1 0 ack 40 ------- 1 1.0 0.0 40 81
- 0.731184 1 0 ack 40 ------- 1 1.0 0.0 40 81
r 0.733248 1 0 ack 40 ------- 1 1.0 0.0 40 81
+ 0.733248 0 1 tcp 1040 ------- 1 0.0 1.0 41 82
- 0.733248 0 1 tcp 1040 ------- 1 0.0 1.0 41 82
r 0.736912 0 1 tcp 1040 ------- 1 0.0 1.0 41 82
+ 0.736912 1 0 ack 40 ------- 1 1.0 0.0 41 83
- 0.736912 1 0 ack 40 ------- 1 1.0 0.0 41 83
r 0.738976 1 0 ack 40 ------- 1 1.0 0.0 41 83
+ 0.738976 0 1 tcp 1040 ------- 1 0.0 1.0 42 84
- 0.738976 0 1 tcp 1040 ------- 1 0.0 1.0 42 84
r 0.74264 0 1 tcp 1040 ------- 1 0.0 1.0 42 84
+ 0.74264 1 0 ack 40 ------- 1 1.0 0.0 42 85
- 0.74264 1 0 ack 40 ------- 1 1.0 0.0 42 85
r 0.744704 1 0 ack 40 ------- 1 1.0 0.0 42 85
+ 0.744704 0 1 tcp 1040 ------- 1 0.0 1.0 43 86
- 0.744704 0 1 tcp 1040 ------- 1 0.0 1.0 43 86
r 0.748368 0 1 tcp 1040 ------- 1 0.0 1.0 43 86
+ 0.748368 1 0 ack 40 ------- 1 1.0 0.0 43 87
- 0.748368 1 0 ack 40 ------- 1 1.0 0.0 43 87
r 0.750432 1 0 ack 40 ------- 1 1.0 0.0 43 87
+ 0.750432 0 1 tcp 1040 ------- 1 0.0 1.0 44 88
- 0.750432 0 1 tcp 1040 ------- 1 0.0 1.0 44 88
r 0.754096 0 1 tcp 1040 ------- 1 0.0 1.0 44 88
+ 0.754096 1 0 ack 40 ------- 1 1.0 0.0 44 89
- 0.754096 1 0 ack 40 ------- 1 1.0 0.0 44 89
r 0.75616 1 0 ack 40 ------- 1 1.0 0.0 44 89
+ 0.75616 0 1 tcp 1040 ------- 1 0.0 1.0 45 90
- 0.75616 0 1 tcp 1040 ------- 1 0.0 1.0 45 90
r 0.759824 0 1 tcp 1040 ------- 1 0.0 1.0 45 90
+ 0.759824 1 0 ack 40 ------- 1 1.0 0.0 45 91
- 0.759824 1 0 ack 40 ------- 1 1.0 0.0 45 91
r 0.761888 1 0 ack 40 ------- 1 1.0 0.0 45 91
+ 0.761888 0 1 tcp 1040 ------- 1 0.0 1.0 46 92
- 0.761888 0 1 tcp 1040 ------- 1 0.0 1.0 46 92
r 0.765552 0 1 tcp 1040 ------- 1 0.0 1.0 46 92
+ 0.765552 1 0 ack 40 ------- 1 1.0 0.0 46 93
- 0.765552 1 0 ack 40 ------- 1 1.0 0.0 46 93
r 0.767616 1 0 ack 40 ------- 1 1.0 0.0 46 93
+ 0.767616 0 1 tcp 1040 ------- 1 0.0 1.0 47 94
- 0.767616 0 1 tcp 1040 ------- 1 0.0 1.0 47 94
r 0.77128 0 1 tcp 1040 ------- 1 0.0 1.0 47 94
+ 0.77128 1 0 ack 40 ------- 1 1.0 0.0 47 95
- 0.77128 1 0 ack 40 ------- 1 1.0 0.0 47 95
r 0.773344 1 0 ack 40 ------- 1 1.0 0.0 47 95
+ 0.773344 0 1 tcp 1040 ------- 1 0.0 1.0 48 96
- 0.773344 0 1 tcp 1040 ------- 1 0.0 1.0 48 96
r 0.777008 0 1 tcp 1040 ------- 1 0.0 1.0 48 96
+ 0.777008 1 0 ack 40 ------- 1 1.0 0.0 48 97
- 0.777008 1 0 ack 40 ------- 1 1.0 0.0 48 97
r 0.779072 1 0 ack 40 ------- 1 1.0 0.0 48 97
+ 0.779072 0 1 tcp 1040 ------- 1 0.0 1.0 49 98
- 0.779072 0 1 tcp 1040 ------- 1 0.0 1.0 49 98
r 0.782736 0 1 tcp 1040 ------- 1 0.0 1.0 49 98
+ 0.782736 1 0 ack 40 ------- 1 1.0 0.0 49 99
- 0.782736 1 0 ack 40 ------- 1 1.0 0.0 49 99
r 0.7848 1 0 ack 40 ------- 1 1.0 0.0 49 99
+ 0.7848 0 1 tcp 1040 ------- 1 0.0 1.0 50 100
- 0.7848 0 1 tcp 1040 ------- 1 0.0 1.0 50 100
r 0.788464 0 1 tcp 1040 ------- 1 0.0 1.0 50 100
+ 0.788464 1 0 ack 40 ------- 1 1.0 0.0 50 101
- 0.788464 1 0 ack 40 ------- 1 1.0 0.0 50 101
r 0.790528 1 0 ack 40 ------- 1 1.0 0.0 50 101
+ 0.790528 0 1 tcp 1040 ------- 1 0.0 1.0 51 102
- 0.790528 0 1 tcp 1040 ------- 1 0.0 1.0 51 102
r 0.794192 0 1 tcp 1040 ------- 1 0.0 1.0 51 102
+ 0.794192 1 0 ack 40 ------- 1 1.0 0.0 51 103
- 0.794192 1 0 ack 40 ------- 1 1.0 0.0 51 103
r 0.796256 1 0 ack 40 ------- 1 1.0 0.0 51 103
+ 0.796256 0 1 tcp 1040 ------- 1 0.0 1.0 52 104
- 0.796256 0 1 tcp 1040 ------- 1 0.0 1.0 52 104
r 0.79992 0 1 tcp 1040 ------- 1 0.0 1.0 52 104
+ 0.79992 1 0 ack 40 ------- 1 1.0 0.0 52 105
- 0.79992 1 0 ack 40 ------- 1 1.0 0.0 52 105
r 0.801984 1 0 ack 40 ------- 1 1.0 0.0 52 105
+ 0.801984 0 1 tcp 1040 ------- 1 0.0 1.0 53 106
- 0.801984 0 1 tcp 1040 ------- 1 0.0 1.0 53 106
r 0.805648 0 1 tcp 1040 ------- 1 0.0 1.0 53 106
+ 0.805648 1 0 ack 40 ------- 1 1.0 0.0 53 107
- 0.805648 1 0 ack 40 ------- 1 1.0 0.0 53 107
r 0.807712 1 0 ack 40 ------- 1 1.0 0.0 53 107
+ 0.807712 0 1 tcp 1040 ------- 1 0.0 1.0 54 108
- 0.807712 0 1 tcp 1040 ------- 1 0.0 1.0 54 108
r 0.811376 0 1 tcp 1040 ------- 1 0.0 1.0 54 108
+ 0.811376 1 0 ack 40 ------- 1 1.0 0.0 54 109
- 0.811376 1 0 ack 40 ------- 1 1.0 0.0 54 109
r 0.81344 1 0 ack 40 ------- 1 1.0 0.0 54 109
+ 0.81344 0 1 tcp 1040 ------- 1 0.0 1.0 55 110
- 0.81344 0 1 tcp 1040 ------- 1 0.0 1.0 55 110
r 0.817104 0 1 tcp 1040 ------- 1 0.0 1.0 55 110
+ 0.817104 1 0 ack 40 ------- 1 1.0 0.0 55 111
- 0.817104 1 0 ack 40 ------- 1 1.0 0.0 55 111
r 0.819168 1 0 ack 40 ------- 1 1.0 0.0 55 111
+ 0.819168 0 1 tcp 1040 ------- 1 0.0 1.0 56 112
- 0.819168 0 1 tcp 1040 ------- 1 0.0 1.0 56 112
r 0.822832 0 1 tcp 1040 ------- 1 0.0 1.0 56 112
+ 0.822832 1 0 ack 40 ------- 1 1.0 0.0 56 113
- 0.822832 1 0 ack 40 ------- 1 1.0 0.0 56 113
r 0.824896 1 0 ack 40 ------- 1 1.0 0.0 56 113
+ 0.824896 0 1 tcp 1040 ------- 1 0.0 1.0 57 114
- 0.824896 0 1 tcp 1040 ------- 1 0.0 1.0 57 114
r 0.82856 0 1 tcp 1040 ------- 1 0.0 1.0 57 114
+ 0.82856 1 0 ack 40 ------- 1 1.0 0.0 57 115
- 0.82856 1 0 ack 40 ------- 1 1.0 0.0 57 115
r 0.830624 1 0 ack 40 ------- 1 1.0 0.0 57 115
+ 0.830624 0 1 tcp 1040 ------- 1 0.0 1.0 58 116
- 0.830624 0 1 tcp 1040 ------- 1 0.0 1.0 58 116
r 0.834288 0 1 tcp 1040 ------- 1 0.0 1.0 58 116
+ 0.834288 1 0 ack 40 ------- 1 1.0 0.0 58 117
- 0.834288 1 0 ack 40 ------- 1 1.0 0.0 58 117
r 0.836352 1 0 ack 40 ------- 1 1.0 0.0 58 117
+ 0.836352 0 1 tcp 1040 ------- 1 0.0 1.0 59 118
- 0.836352 0 1 tcp 1040 ------- 1 0.0 1.0 59 118
r 0.840016 0 1 tcp 1040 ------- 1 0.0 1.0 59 118
+ 0.840016 1 0 ack 40 ------- 1 1.0 0.0 59 119
- 0.840016 1 0 ack 40 ------- 1 1.0 0.0 59 119
r 0.84208 1 0 ack 40 ------- 1 1.0 0.0 59 119
+ 0.84208 0 1 tcp 1040 ------- 1 0.0 1.0 60 120
- 0.84208 0 1 tcp 1040 ------- 1 0.0 1.0 60 120
r 0.845744 0 1 tcp 1040 ------- 1 0.0 1.0 60 120
+ 0.845744 1 0 ack 40 ------- 1 1.0 0.0 60 121
- 0.845744 1 0 ack 40 ------- 1 1.0 0.0 60 121
r 0.847808 1 0 ack 40 ------- 1 1.0 0.0 60 121
+ 0.847808 0 1 tcp 1040 ------- 1 0.0 1.0 61 122
- 0.847808 0 1 tcp 1040 ------- 1 0.0 1.0 61 122
r 0.851472 0 1 tcp 1040 ------- 1 0.0 1.0 61 122
+ 0.851472 1 0 ack 40 ------- 1 1.0 0.0 61 123
- 0.851472 1 0 ack 40 ------- 1 1.0 0.0 61 123
r 0.853536 1 0 ack 40 ------- 1 1.0 0.0 61 123
+ 0.853536 0 1 tcp 1040 ------- 1 0.0 1.0 62 124
- 0.853536 0 1 tcp 1040 ------- 1 0.0 1.0 62 124
r 0.8572 0 1 tcp 1040 ------- 1 0.0 1.0 62 124
+ 0.8572 1 0 ack 40 ------- 1 1.0 0.0 62 125
- 0.8572 1 0 ack 40 ------- 1 1.0 0.0 62 125
r 0.859264 1 0 ack 40 ------- 1 1.0 0.0 62 125
+ 0.859264 0 1 tcp 1040 ------- 1 0.0 1.0 63 126
- 0.859264 0 1 tcp 1040 ------- 1 0.0 1.0 63 126
r 0.862928 0 1 tcp 1040 ------- 1 0.0 1.0 63 126
+ 0.862928 1 0 ack 40 ------- 1 1.0 0.0 63 127
- 0.862928 1 0 ack 40 ------- 1 1.0 0.0 63 127
r 0.864992 1 0 ack 40 ------- 1 1.0 0.0 63 127
+ 0.864992 0 1 tcp 1040 ------- 1 0.0 1.0 64 128
- 0.864992 0 1 tcp 1040 ------- 1 0.0 1.0 64 128
r 0.868656 0 1 tcp 1040 ------- 1 0.0 1.0 64 128
+ 0.868656 1 0 ack 40 ------- 1 1.0 0.0 64 129
- 0.868656 1 0 ack 40 ------- 1 1.0 0.0 64 129
r 0.87072 1 0 ack 40 ------- 1 1.0 0.0 64 129
+ 0.87072 0 1 tcp 1040 ------- 1 0.0 1.0 65 130
- 0.87072 0 1 tcp 1040 ------- 1 0.0 1.0 65 130
r 0.874384 0 1 tcp 1040 ------- 1 0.0 1.0 65 130
+ 0.874384 1 0 ack 40 ------- 1 1.0 0.0 65 131
- 0.874384 1 0 ack 40 ------- 1 1.0 0.0 65 131
r 0.876448 1 0 ack 40 ------- 1 1.0 0.0 65 131
+ 0.876448 0 1 tcp 1040 ------- 1 0.0 1.0 66 132
- 0.876448 0 1 tcp 1040 ------- 1 0.0 1.0 66 132
r 0.880112 0 1 tcp 1040 ------- 1 0.0 1.0 66 132
+ 0.880112 1 0 ack 40 ------- 1 1.0 0.0 66 133
- 0.880112 1 0 ack 40 ------- 1 1.0 0.0 66 133
r 0.882176 1 0 ack 40 ------- 1 1.0 0.0 66 133
+ 0.882176 0 1 tcp 1040 ------- 1 0.0 1.0 67 134
- 0.882176 0 1 tcp 1040 ------- 1 0.0 1.0 67 134
r 0.88584 0 1 tcp 1040 ------- 1 0.0 1.0 67 134
+ 0.88584 1 0 ack 40 ------- 1 1.0 0.0 67 135
- 0.88584 1 0 ack 40 ------- 1 1.0 0.0 67 135
r 0.887904 1 0 ack 40 ------- 1 1.0 0.0 67 135
+ 0.887904 0 1 tcp 1040 ------- 1 0.0 1.0 68 136
- 0.887904 0 1 tcp 1040 ------- 1 0.0 1.0 68 136
r 0.891568 0 1 tcp 1040 ------- 1 0.0 1.0 68 136
+ 0.891568 1 0 ack 40 ------- 1 1.0 0.0 68 137
- 0.891568 1 0 ack 40 ------- 1 1.0 0.0 68 137
r 0.893632 1 0 ack 40 ------- 1 1.0 0.0 68 137
+ 0.893632 0 1 tcp 1040 ------- 1 0.0 1.0 69 138
- 0.893632 0 1 tcp 1040 ------- 1 0.0 1.0 69 138
r 0.897296 0 1 tcp 1040 ------- 1 0.0 1.0 69 138
+ 0.897296 1 0 ack 40 ------- 1 1.0 0.0 69 139
- 0.897296 1 0 ack 40 ------- 1 1.0 0.0 69 139
r 0.89936 1 0 ack 40 ------- 1 1.0 0.0 69 139
+ 0.89936 0 1 tcp 1040 ------- 1 0.0 1.0 70 140
- 0.89936 0 1 tcp 1040 ------- 1 0.0 1.0 70 140
r 0.903024 0 1 tcp 1040 ------- 1 0.0 1.0 70 140
+ 0.903024 1 0 ack 40 ------- 1 1.0 0.0 70 141
- 0.903024 1 0 ack 40 ------- 1 1.0 0.0 70 141
r 0.905088 1 0 ack 40 ------- 1 1.0 0.0 70 141
+ 0.905088 0 1 tcp 1040 ------- 1 0.0 1.0 71 142
- 0.905088 0 1 tcp 1040 ------- 1 0.0 1.0 71 142
r 0.908752 0 1 tcp 1040 ------- 1 0.0 1.0 71 142
+ 0.908752 1 0 ack 40 ------- 1 1.0 0.0 71 143
- 0.908752 1 0 ack 40 ------- 1 1.0 0.0 71 143
r 0.910816 1 0 ack 40 ------- 1 1.0 0.0 71 143
+ 0.910816 0 1 tcp 1040 ------- 1 0.0 1.0 72 144
- 0.910816 0 1 tcp 1040 ------- 1 0.0 1.0 72 144
r 0.91448 0 1 tcp 1040 ------- 1 0.0 1.0 72 144
+ 0.91448 1 0 ack 40 ------- 1 1.0 0.0 72 145
- 0.91448 1 0 ack 40 ------- 1 1.0 0.0 72 145
r 0.916544 1 0 ack 40 ------- 1 1.0 0.0 72 145
+ 0.916544 0 1 tcp 1040 ------- 1 0.0 1.0 73 146
- 0.916544 0 1 tcp 1040 ------- 1 0.0 1.0 73 146
r 0.920208 0 1 tcp 1040 ------- 1 0.0 1.0 73 146
+ 0.920208 1 0 ack 40 ------- 1 1.0 0.0 73 147
- 0.920208 1 0 ack 40 ------- 1 1.0 0.0 73 147
r 0.922272 1 0 ack 40 ------- 1 1.0 0.0 73 147
+ 0.922272 0 1 tcp 1040 ------- 1 0.0 1.0 74 148
- 0.922272 0 1 tcp 1040 ------- 1 0.0 1.0 74 148
r 0.925936 0 1 tcp 1040 ------- 1 0.0 1.0 74 148
+ 0.925936 1 0 ack 40 ------- 1 1.0 0.0 74 149
- 0.925936 1 0 ack 40 ------- 1 1.0 0.0 74 149
r 0.928 1 0 ack 40 ------- 1 1.0 0.0 74 149
+ 0.928 0 1 tcp 1040 ------- 1 0.0 1.0 75 150
- 0.928 0 1 tcp 1040 ------- 1 0.0 1.0 75 150
r 0.931664 0 1 tcp 1040 ------- 1 0.0 1.0 75 150
+ 0.931664 1 0 ack 40 ------- 1 1.0 0.0 75 151
- 0.931664 1 0 ack 40 ------- 1 1.0 0.0 75 151
r 0.933728 1 0 ack 40 ------- 1 1.0 0.0 75 151
+ 0.933728 0 1 tcp 1040 ------- 1 0.0 1.0 76 152
- 0.933728 0 1 tcp 1040 ------- 1 0.0 1.0 76 152
r 0.937392 0 1 tcp 1040 ------- 1 0.0 1.0 76 152
+ 0.937392 1 0 ack 40 ------- 1 1.0 0.0 76 153
- 0.937392 1 0 ack 40 ------- 1 1.0 0.0 76 153
r 0.939456 1 0 ack 40 ------- 1 1.0 0.0 76 153
+ 0.939456 0 1 tcp 1040 ------- 1 0.0 1.0 77 154
- 0.939456 0 1 tcp 1040 ------- 1 0.0 1.0 77 154
r 0.94312 0 1 tcp 1040 ------- 1 0.0 1.0 77 154
+ 0.94312 1 0 ack 40 ------- 1 1.0 0.0 77 155
- 0.94312 1 0 ack 40 ------- 1 1.0 0.0 77 155
r 0.945184 1 0 ack 40 ------- 1 1.0 0.0 77 155
+ 0.945184 0 1 tcp 1040 ------- 1 0.0 1.0 78 156
- 0.945184 0 1 tcp 1040 ------- 1 0.0 1.0 78 156
r 0.948848 0 1 tcp 1040 ------- 1 0.0 1.0 78 156
+ 0.948848 1 0 ack 40 ------- 1 1.0 0.0 78 157
- 0.948848 1 0 ack 40 ------- 1 1.0 0.0 78 157
r 0.950912 1 0 ack 40 ------- 1 1.0 0.0 78 157
+ 0.950912 0 1 tcp 1040 ------- 1 0.0 1.0 79 158
- 0.950912 0 1 tcp 1040 ------- 1 0.0 1.0 79 158
r 0.954576 0 1 tcp 1040 ------- 1 0.0 1.0 79 158
+ 0.954576 1 0 ack 40 ------- 1 1.0 0.0 79 159
- 0.954576 1 0 ack 40 ------- 1 1.0 0.0 79 159
r 0.95664 1 0 ack 40 ------- 1 1.0 0.0 79 159
+ 0.95664 0 1 tcp 1040 ------- 1 0.0 1.0 80 160
- 0.95664 0 1 tcp 1040 ------- 1 0.0 1.0 80 160
r 0.960304 0 1 tcp 1040 ------- 1 0.0 1.0 80 160
+ 0.960304 1 0 ack 40 ------- 1 1.0 0.0 80 161
- 0.960304 1 0 ack 40 ------- 1 1.0 0.0 80 161
r 0.962368 1 0 ack 40 ------- 1 1.0 0.0 80 161
+ 0.962368 0 1 tcp 1040 ------- 1 0.0 1.0 81 162
- 0.962368 0 1 tcp 1040 ------- 1 0.0 1.0 81 162
r 0.966032 0 1 tcp 1040 ------- 1 0.0 1.0 81 162
+ 0.966032 1 0 ack 40 ------- 1 1.0 0.0 81 163
- 0.966032 1 0 ack 40 ------- 1 1.0 0.0 81 163
r 0.968096 1 0 ack 40 ------- 1 1.0 0.0 81 163
+ 0.968096 0 1 tcp 1040 ------- 1 0.0 1.0 82 164
- 0.968096 0 1 tcp 1040 ------- 1 0.0 1.0 82 164
r 0.97176 0 1 tcp 1040 ------- 1 0.0 1.0 82 164
+ 0.97176 1 0 ack 40 ------- 1 1.0 0.0 82 165
- 0.97176 1 0 ack 40 ------- 1 1.0 0.0 82 165
r 0.973824 1 0 ack 40 ------- 1 1.0 0.0 82 165
+ 0.973824 0 1 tcp 1040 ------- 1 0.0 1.0 83 166
- 0.973824 0 1 tcp 1040 ------- 1 0.0 1.0 83 166
r 0.977488 0 1 tcp 1040 ------- 1 0.0 1.0 83 166
+ 0.977488 1 0 ack 40 ------- 1 1.0 0.0 83 167
- 0.977488 1 0 ack 40 ------- 1 1.0 0.0 83 167
r 0.979552 1 0 ack 40 ------- 1 1.0 0.0 83 167
+ 0.979552 0 1 tcp 1040 ------- 1 0.0 1.0 84 168
- 0.979552 0 1 tcp 1040 ------- 1 0.0 1.0 84 168
r 0.983216 0 1 tcp 1040 ------- 1 0.0 1.0 84 168
+ 0.983216 1 0 ack 40 ------- 1 1.0 0.0 84 169
- 0.983216 1 0 ack 40 ------- 1 1.0 0.0 84 169
r 0.98528 1 0 ack 40 ------- 1 1.0 0.0 84 169
+ 0.98528 0 1 tcp 1040 ------- 1 0.0 1.0 85 170
- 0.98528 0 1 tcp 1040 ------- 1 0.0 1.0 85 170
r 0.988944 0 1 tcp 1040 ------- 1 0.0 1.0 85 170
+ 0.988944 1 0 ack 40 ------- 1 1.0 0.0 85 171
- 0.988944 1 0 ack 40 ------- 1 1.0 0.0 85 171
r 0.991008 1 0 ack 40 ------- 1 1.0 0.0 85 171
+ 0.991008 0 1 tcp 1040 ------- 1 0.0 1.0 86 172
- 0.991008 0 1 tcp 1040 ------- 1 0.0 1.0 86 172
r 0.994672 0 1 tcp 1040 ------- 1 0.0 1.0 86 172
+ 0.994672 1 0 ack 40 ------- 1 1.0 0.0 86 173
- 0.994672 1 0 ack 40 ------- 1 1.0 0.0 86 173
r 0.996736 1 0 ack 40 ------- 1 1.0 0.0 86 173
+ 0.996736 0 1 tcp 1040 ------- 1 0.0 1.0 87 174
- 0.996736 0 1 tcp 1040 ------- 1 0.0 1.0 87 174
v 1 eval {set sim_annotation {send packet 1}}
r 1.0004 0 1 tcp 1040 ------- 1 0.0 1.0 87 174
+ 1.0004 1 0 ack 40 ------- 1 1.0 0.0 87 175
- 1.0004 1 0 ack 40 ------- 1 1.0 0.0 87 175
r 1.002464 1 0 ack 40 ------- 1 1.0 0.0 87 175
+ 1.002464 0 1 tcp 1040 ------- 1 0.0 1.0 88 176
- 1.002464 0 1 tcp 1040 ------- 1 0.0 1.0 88 176
r 1.006128 0 1 tcp 1040 ------- 1 0.0 1.0 88 176
+ 1.006128 1 0 ack 40 ------- 1 1.0 0.0 88 177
- 1.006128 1 0 ack 40 ------- 1 1.0 0.0 88 177
r 1.008192 1 0 ack 40 ------- 1 1.0 0.0 88 177
+ 1.008192 0 1 tcp 1040 ------- 1 0.0 1.0 89 178
- 1.008192 0 1 tcp 1040 ------- 1 0.0 1.0 89 178
r 1.011856 0 1 tcp 1040 ------- 1 0.0 1.0 89 178
+ 1.011856 1 0 ack 40 ------- 1 1.0 0.0 89 179
- 1.011856 1 0 ack 40 ------- 1 1.0 0.0 89 179
r 1.01392 1 0 ack 40 ------- 1 1.0 0.0 89 179
+ 1.01392 0 1 tcp 1040 ------- 1 0.0 1.0 90 180
- 1.01392 0 1 tcp 1040 ------- 1 0.0 1.0 90 180
r 1.017584 0 1 tcp 1040 ------- 1 0.0 1.0 90 180
+ 1.017584 1 0 ack 40 ------- 1 1.0 0.0 90 181
- 1.017584 1 0 ack 40 ------- 1 1.0 0.0 90 181
r 1.019648 1 0 ack 40 ------- 1 1.0 0.0 90 181
+ 1.019648 0 1 tcp 1040 ------- 1 0.0 1.0 91 182
- 1.019648 0 1 tcp 1040 ------- 1 0.0 1.0 91 182
r 1.023312 0 1 tcp 1040 ------- 1 0.0 1.0 91 182
+ 1.023312 1 0 ack 40 ------- 1 1.0 0.0 91 183
- 1.023312 1 0 ack 40 ------- 1 1.0 0.0 91 183
r 1.025376 1 0 ack 40 ------- 1 1.0 0.0 91 183
+ 1.025376 0 1 tcp 1040 ------- 1 0.0 1.0 92 184
- 1.025376 0 1 tcp 1040 ------- 1 0.0 1.0 92 184
r 1.02904 0 1 tcp 1040 ------- 1 0.0 1.0 92 184
+ 1.02904 1 0 ack 40 ------- 1 1.0 0.0 92 185
- 1.02904 1 0 ack 40 ------- 1 1.0 0.0 92 185
r 1.031104 1 0 ack 40 ------- 1 1.0 0.0 92 185
+ 1.031104 0 1 tcp 1040 ------- 1 0.0 1.0 93 186
- 1.031104 0 1 tcp 1040 ------- 1 0.0 1.0 93 186
r 1.034768 0 1 tcp 1040 ------- 1 0.0 1.0 93 186
+ 1.034768 1 0 ack 40 ------- 1 1.0 0.0 93 187
- 1.034768 1 0 ack 40 ------- 1 1.0 0.0 93 187
r 1.036832 1 0 ack 40 ------- 1 1.0 0.0 93 187
+ 1.036832 0 1 tcp 1040 ------- 1 0.0 1.0 94 188
- 1.036832 0 1 tcp 1040 ------- 1 0.0 1.0 94 188
r 1.040496 0 1 tcp 1040 ------- 1 0.0 1.0 94 188
+ 1.040496 1 0 ack 40 ------- 1 1.0 0.0 94 189
- 1.040496 1 0 ack 40 ------- 1 1.0 0.0 94 189
r 1.04256 1 0 ack 40 ------- 1 1.0 0.0 94 189
+ 1.04256 0 1 tcp 1040 ------- 1 0.0 1.0 95 190
- 1.04256 0 1 tcp 1040 ------- 1 0.0 1.0 95 190
r 1.046224 0 1 tcp 1040 ------- 1 0.0 1.0 95 190
+ 1.046224 1 0 ack 40 ------- 1 1.0 0.0 95 191
- 1.046224 1 0 ack 40 ------- 1 1.0 0.0 95 191
r 1.048288 1 0 ack 40 ------- 1 1.0 0.0 95 191
+ 1.048288 0 1 tcp 1040 ------- 1 0.0 1.0 96 192
- 1.048288 0 1 tcp 1040 ------- 1 0.0 1.0 96 192
r 1.051952 0 1 tcp 1040 ------- 1 0.0 1.0 96 192
+ 1.051952 1 0 ack 40 ------- 1 1.0 0.0 96 193
- 1.051952 1 0 ack 40 ------- 1 1.0 0.0 96 193
r 1.054016 1 0 ack 40 ------- 1 1.0 0.0 96 193
+ 1.054016 0 1 tcp 1040 ------- 1 0.0 1.0 97 194
- 1.054016 0 1 tcp 1040 ------- 1 0.0 1.0 97 194
r 1.05768 0 1 tcp 1040 ------- 1 0.0 1.0 97 194
+ 1.05768 1 0 ack 40 ------- 1 1.0 0.0 97 195
- 1.05768 1 0 ack 40 ------- 1 1.0 0.0 97 195
r 1.059744 1 0 ack 40 ------- 1 1.0 0.0 97 195
+ 1.059744 0 1 tcp 1040 ------- 1 0.0 1.0 98 196
- 1.059744 0 1 tcp 1040 ------- 1 0.0 1.0 98 196
r 1.063408 0 1 tcp 1040 ------- 1 0.0 1.0 98 196
+ 1.063408 1 0 ack 40 ------- 1 1.0 0.0 98 197
- 1.063408 1 0 ack 40 ------- 1 1.0 0.0 98 197
r 1.065472 1 0 ack 40 ------- 1 1.0 0.0 98 197
+ 1.065472 0 1 tcp 1040 ------- 1 0.0 1.0 99 198
- 1.065472 0 1 tcp 1040 ------- 1 0.0 1.0 99 198
r 1.069136 0 1 tcp 1040 ------- 1 0.0 1.0 99 198
+ 1.069136 1 0 ack 40 ------- 1 1.0 0.0 99 199
- 1.069136 1 0 ack 40 ------- 1 1.0 0.0 99 199
r 1.0712 1 0 ack 40 ------- 1 1.0 0.0 99 199
+ 1.0712 0 1 tcp 1040 ------- 1 0.0 1.0 100 200
- 1.0712 0 1 tcp 1040 ------- 1 0.0 1.0 100 200
r 1.074864 0 1 tcp 1040 ------- 1 0.0 1.0 100 200
+ 1.074864 1 0 ack 40 ------- 1 1.0 0.0 100 201
- 1.074864 1 0 ack 40 ------- 1 1.0 0.0 100 201
r 1.076928 1 0 ack 40 ------- 1 1.0 0.0 100 201
+ 1.076928 0 1 tcp 1040 ------- 1 0.0 1.0 101 202
- 1.076928 0 1 tcp 1040 ------- 1 0.0 1.0 101 202
r 1.080592 0 1 tcp 1040 ------- 1 0.0 1.0 101 202
+ 1.080592 1 0 ack 40 ------- 1 1.0 0.0 101 203
- 1.080592 1 0 ack 40 ------- 1 1.0 0.0 101 203
r 1.082656 1 0 ack 40 ------- 1 1.0 0.0 101 203
+ 1.082656 0 1 tcp 1040 ------- 1 0.0 1.0 102 204
- 1.082656 0 1 tcp 1040 ------- 1 0.0 1.0 102 204
r 1.08632 0 1 tcp 1040 ------- 1 0.0 1.0 102 204
+ 1.08632 1 0 ack 40 ------- 1 1.0 0.0 102 205
- 1.08632 1 0 ack 40 ------- 1 1.0 0.0 102 205
r 1.088384 1 0 ack 40 ------- 1 1.0 0.0 102 205
+ 1.088384 0 1 tcp 1040 ------- 1 0.0 1.0 103 206
- 1.088384 0 1 tcp 1040 ------- 1 0.0 1.0 103 206
r 1.092048 0 1 tcp 1040 ------- 1 0.0 1.0 103 206
+ 1.092048 1 0 ack 40 ------- 1 1.0 0.0 103 207
- 1.092048 1 0 ack 40 ------- 1 1.0 0.0 103 207
r 1.094112 1 0 ack 40 ------- 1 1.0 0.0 103 207
+ 1.094112 0 1 tcp 1040 ------- 1 0.0 1.0 104 208
- 1.094112 0 1 tcp 1040 ------- 1 0.0 1.0 104 208
r 1.097776 0 1 tcp 1040 ------- 1 0.0 1.0 104 208
+ 1.097776 1 0 ack 40 ------- 1 1.0 0.0 104 209
- 1.097776 1 0 ack 40 ------- 1 1.0 0.0 104 209
r 1.09984 1 0 ack 40 ------- 1 1.0 0.0 104 209
+ 1.09984 0 1 tcp 1040 ------- 1 0.0 1.0 105 210
- 1.09984 0 1 tcp 1040 ------- 1 0.0 1.0 105 210
r 1.103504 0 1 tcp 1040 ------- 1 0.0 1.0 105 210
+ 1.103504 1 0 ack 40 ------- 1 1.0 0.0 105 211
- 1.103504 1 0 ack 40 ------- 1 1.0 0.0 105 211