V -t * -v 1.0a5 -a 0
A -t * -n 1 -p 0 -o 0x7fffffff -c 30 -a 1
A -t * -h 1 -m 1073741823 -s 0
c -t * -i 1 -n Blue
n -t * -a 0 -s 0 -S UP -v circle -c black -i black
n -t * -a 1 -s 1 -S UP -v circle -c black -i black
l -t * -s 0 -d 1 -S UP -r 5000000 -D 0.002 -c black
a -t 0 -s 0 -d 1 -n tcp
v -t 0 -e monitor_agent 0 tcp
n -t 0 -s 0 -S DLABEL -l " sender " -L ""
n -t 0 -s 1 -S DLABEL -l "receiver" -L ""
+ -t 0.5 -s 0 -d 1 -p tcp -e 40 -c 1 -i 0 -a 1 -x {0.0 1.0 0 ------- null}
- -t 0.5 -s 0 -d 1 -p tcp -e 40 -c 1 -i 0 -a 1 -x {0.0 1.0 0 ------- null}
h -t 0.5 -s 0 -d 1 -p tcp -e 40 -c 1 -i 0 -a 1 -x {0.0 1.0 -1 ------- null}
r -t 0.502064 -s 0 -d 1 -p tcp -e 40 -c 1 -i 0 -a 1 -x {0.0 1.0 0 ------- null}
+ -t 0.502064 -s 1 -d 0 -p ack -e 40 -c 1 -i 1 -a 1 -x {1.0 0.0 0 ------- null}
- -t 0.502064 -s 1 -d 0 -p ack -e 40 -c 1 -i 1 -a 1 -x {1.0 0.0 0 ------- null}
h -t 0.502064 -s 1 -d 0 -p ack -e 40 -c 1 -i 1 -a 1 -x {1.0 0.0 -1 ------- null}
r -t 0.504128 -s 1 -d 0 -p ack -e 40 -c 1 -i 1 -a 1 -x {1.0 0.0 0 ------- null}
+ -t 0.504128 -s 0 -d 1 -p tcp -e 1040 -c 1 -i 2 -a 1 -x {0.0 1.0 1 ------- null}
- -t 0.504128 -s 0 -d 1 -p tcp -e 1040 -c 1 -i 2 -a 1 -x {0.0 1.0 1 ------- null}
h -t 0.504128 -s 0 -d 1 -p tcp -e 1040 -c 1 -i 2 -a 1 -x {0.0 1.0 -1 ------- null}
r -t 0.507792 -s 0 -d 1 -p tcp -e 1040 -c 1 -i 2 -a 1 -x {0.0 1.0 1 ------- null}
+ -t 0.507792 -s 1 -d 0 -p ack -e 40 -c 1 -i 3 -a 1 -x {1.0 0.0 1 ------- null}
- -t 0.507792 -s 1 -d 0 -p ack -e 40 -c 1 -i 3 -a 1 -x {1.0 0.0 1 ------- null}
h -t 0.507792 -s 1 -d 0 -p ack -e 40 -c 1 -i 3 -a 1 -x {1.0 0.0 -1 ------- null}
r -t 0.509856 -s 1 -d 0 -p ack -e 40 -c 1 -i 3 -a 1 -x {1.0 0.0 1 ------- null}
+ -t 0.509856 -s 0 -d 1 -p tcp -e 1040 -c 1 -i 4 -a 1 -x {0.0 1.0 2 ------- null}
- -t 0.509856 -s 0 -d 1 -p tcp -e 1040 -c 1 -i 4 -a 1 -x {0.0 1.0 2 ------- null}
h -t 0.509856 -s 0 -d 1 -p tcp -e 1040 -c 1 -i 4 -a 1 -x {0.0 1.0 -1 ------- null}
r -t 0.51352 -s 0 -d 1 -p tcp -e 1040 -c 1 -i 4 -a 1 -x {0.0 1.0 2 ------- null}
+ -t 0.51352 -s 1 -d 0 -p ack -e 40 -c 1 -i 5 -a 1 -x {1.0 0.0 2 ------- null}
- -t 0.51352 -s 1 -d 0 -p ack -e 40 -c 1 -i 5 -a 1 -x {1.0 0.0 2 ------- null}
h -t 0.51352 -s 1 -d 0 -p ack -e 40 -c 1 -i 5 -a 1 -x {1.0 0.0 -1 ------- null}
r -t 0.515584 -s 1 -d 0 -p ack -e 40 -c 1 -i 5 -a 1 -x {1.0 0.0 2 ------- null}
+ -t 0.515584 -s 0 -d 1 -p tcp -e 1040 -c 1 -i 6 -a 1 -x {0.0 1.0 3 ------- null}
- -t 0.515584 -s 0 -d 1 -p tcp -e 1040 -c 1 -i 6 -a 1 -x {0.0 1.0 3 ------- null}
h -t 0.515584 -s 0 -d 1 -p tcp -e 1040 -c 1 -i 6 -a 1 -x {0.0 1.0 -1 ------- null}
r -t 0.519248 -s 0 -d 1 -p tcp -e 1040 -c 1 -i 6 -a 1 -x {0.0 1.0 3 ------- null}
+ -t 0.519248 -s 1 -d 0 -p ack -e 40 -c 1 -i 7 -a 1 -x {1.0 0.0 3 ------- null}
- -t 0.519248 -s 1 -d 0 -p ack -e 40 -c 1 -i 7 -a 1 -x {1.0 0.0 3 ------- null}
h -t 0.519248 -s 1 -d 0 -p ack -e 40 -c 1 -i 7 -a 1 -x {1.0 0.0 -1 ------- null}
r -t 0.521312 -s 1 -d 0 -p ack -e 40 -c 1 -i 7 -a 1 -x {1.0 0.0 3 ------- null}
+ -t 0.521312 -s 0 -d 1 -p tcp -e 1040 -c 1 -i 8 -a 1 -x {0.0 1.0 4 ------- null}
- -t 0.521312 -s 0 -d 1 -p tcp -e 1040 -c 1 -i 8 -a 1 -x {0.0 1.0 4 ------- null}
h -t 0.521312 -s 0 -d 1 -p tcp -e 1040 -c 1 -i 8 -a 1 -x {0.0 1.0 -1 ------- null}
r -t 0.524976 -s 0 -d 1 -p tcp -e 1040 -c 1 -i 8 -a 1 -x {0.0 1.0 4 ------- null}
+ -t 0.524976 -s 1 -d 0 -p ack -e 40 -c 1 -i 9 -a 1 -x {1.0 0.0 4 ------- null}
- -t 0.524976 -s 1 -d 0 -p ack -e 40 -c 1 -i 9 -a 1 -x {1.0 0.0 4 ------- null}
h -t 0.524976 -s 1 -d 0 -p ack -e 40 -c 1 -i 9 -a 1 -x {1.0 0.0 -1 ------- null}
r -t 0.52704 -s 1 -d 0 -p ack -e 40 -c 1 -i 9 -a 1 -x {1.0 0.0 4 ------- null}
+ -t 0.52704 -s 0 -d 1 -p tcp -e 1040 -c 1 -i 10 -a 1 -x {0.0 1.0 5 ------- null}
- -t 0.52704 -s 0 -d 1 -p tcp -e 1040 -c 1 -i 10 -a 1 -x {0.0 1.0 5 ------- null}
h -t 0.52704 -s 0 -d 1 -p tcp -e 1040 -c 1 -i 10 -a 1 -x {0.0 1.0 -1 ------- null}
r -t 0.530704 -s 0 -d 1 -p tcp -e 1040 -c 1 -i 10 -a 1 -x {0.0 1.0 5 ------- null}
+ -t 0.530704 -s 1 -d 0 -p ack -e 40 -c 1 -i 11 -a 1 -x {1.0 0.0 5 ------- null}
- -t 0.530704 -s 1 -d 0 -p ack -e 40 -c 1 -i 11 -a 1 -x {1.0 0.0 5 ------- null}
h -t 0.530704 -s 1 -d 0 -p ack -e 40 -c 1 -i 11 -a 1 -x {1.0 0.0 -1 ------- null}
r -t 0.532768 -s 1 -d 0 -p ack -e 40 -c 1 -i 11 -a 1 -x {1.0 0.0 5 ------- null}
+ -t 0.532768 -s 0 -d 1 -p tcp -e 1040 -c 1 -i 12 -a 1 -x {0.0 1.0 6 ------- null}
- -t 0.532768 -s 0 -d 1 -p tcp -e 1040 -c 1 -i 12 -a 1 -x {0.0 1.0 6 ------- null}
h -t 0.532768 -s 0 -d 1 -p tcp -e 1040 -c 1 -i 12 -a 1 -x {0.0 1.0 -1 ------- null}
r -t 0.536432 -s 0 -d 1 -p tcp -e 1040 -c 1 -i 12 -a 1 -x {0.0 1.0 6 ------- null}
+ -t 0.536432 -s 1 -d 0 -p ack -e 40 -c 1 -i 13 -a 1 -x {1.0 0.0 6 ------- null}
- -t 0.536432 -s 1 -d 0 -p ack -e 40 -c 1 -i 13 -a 1 -x {1.0 0.0 6 ------- null}
h -t 0.536432 -s 1 -d 0 -p ack -e 40 -c 1 -i 13 -a 1 -x {1.0 0.0 -1 ------- null}
r -t 0.538496 -s 1 -d 0 -p ack -e 40 -c 1 -i 13 -a 1 -x {1.0 0.0 6 ------- null}
+ -t 0.538496 -s 0 -d 1 -p tcp -e 1040 -c 1 -i 14 -a 1 -x {0.0 1.0 7 ------- null}
- -t 0.538496 -s 0 -d 1 -p tcp -e 1040 -c 1 -i 14 -a 1 -x {0.0 1.0 7 ------- null}
h -t 0.538496 -s 0 -d 1 -p tcp -e 1040 -c 1 -i 14 -a 1 -x {0.0 1.0 -1 ------- null}
r -t 0.54216 -s 0 -d 1 -p tcp -e 1040 -c 1 -i 14 -a 1 -x {0.0 1.0 7 ------- null}
+ -t 0.54216 -s 1 -d 0 -p ack -e 40 -c 1 -i 15 -a 1 -x {1.0 0.0 7 ------- null}
- -t 0.54216 -s 1 -d 0 -p ack -e 40 -c 1 -i 15 -a 1 -x {1.0 0.0 7 ------- null}
h -t 0.54216 -s 1 -d 0 -p ack -e 40 -c 1 -i 15 -a 1 -x {1.0 0.0 -1 ------- null}
r -t 0.544224 -s 1 -d 0 -p ack -e 40 -c 1 -i 15 -a 1 -x {1.0 0.0 7 ------- null}
+ -t 0.544224 -s 0 -d 1 -p tcp -e 1040 -c 1 -i 16 -a 1 -x {0.0 1.0 8 ------- null}
- -t 0.544224 -s 0 -d 1 -p tcp -e 1040 -c 1 -i 16 -a 1 -x {0.0 1.0 8 ------- null}
h -t 0.544224 -s 0 -d 1 -p tcp -e 1040 -c 1 -i 16 -a 1 -x {0.0 1.0 -1 ------- null}
r -t 0.547888 -s 0 -d 1 -p tcp -e 1040 -c 1 -i 16 -a 1 -x {0.0 1.0 8 ------- null}
+ -t 0.547888 -s 1 -d 0 -p ack -e 40 -c 1 -i 17 -a 1 -x {1.0 0.0 8 ------- null}
- -t 0.547888 -s 1 -d 0 -p ack -e 40 -c 1 -i 17 -a 1 -x {1.0 0.0 8 ------- null}
h -t 0.547888 -s 1 -d 0 -p ack -e 40 -c 1 -i 17 -a 1 -x {1.0 0.0 -1 ------- null}
r -t 0.549952 -s 1 -d 0 -p ack -e 40 -c 1 -i 17 -a 1 -x {1.0 0.0 8 ------- null}
+ -t 0.549952 -s 0 -d 1 -p tcp -e 1040 -c 1 -i 18 -a 1 -x {0.0 1.0 9 ------- null}
- -t 0.549952 -s 0 -d 1 -p tcp -e 1040 -c 1 -i 18 -a 1 -x {0.0 1.0 9 ------- null}
h -t 0.549952 -s 0 -d 1 -p tcp -e 1040 -c 1 -i 18 -a 1 -x {0.0 1.0 -1 ------- null}
r -t 0.553616 -s 0 -d 1 -p tcp -e 1040 -c 1 -i 18 -a 1 -x {0.0 1.0 9 ------- null}
+ -t 0.553616 -s 1 -d 0 -p ack -e 40 -c 1 -i 19 -a 1 -x {1.0 0.0 9 ------- null}
- -t 0.553616 -s 1 -d 0 -p ack -e 40 -c 1 -i 19 -a 1 -x {1.0 0.0 9 ------- null}
h -t 0.553616 -s 1 -d 0 -p ack -e 40 -c 1 -i 19 -a 1 -x {1.0 0.0 -1 ------- null}
r -t 0.55568 -s 1 -d 0 -p ack -e 40 -c 1 -i 19 -a 1 -x {1.0 0.0 9 ------- null}
+ -t 0.55568 -s 0 -d 1 -p tcp -e 1040 -c 1 -i 20 -a 1 -x {0.0 1.0 10 ------- null}
- -t 0.55568 -s 0 -d 1 -p tcp -e 1040 -c 1 -i 20 -a 1 -x {0.0 1.0 10 ------- null}
h -t 0.55568 -s 0 -d 1 -p tcp -e 1040 -c 1 -i 20 -a 1 -x {0.0 1.0 -1 ------- null}
r -t 0.559344 -s 0 -d 1 -p tcp -e 1040 -c 1 -i 20 -a 1 -x {0.0 1.0 10 ------- null}
+ -t 0.559344 -s 1 -d 0 -p ack -e 40 -c 1 -i 21 -a 1 -x {1.0 0.0 10 ------- null}
- -t 0.559344 -s 1 -d 0 -p ack -e 40 -c 1 -i 21 -a 1 -x {1.0 0.0 10 ------- null}
h -t 0.559344 -s 1 -d 0 -p ack -e 40 -c 1 -i 21 -a 1 -x {1.0 0.0 -1 ------- null}
r -t 0.561407999999999 -s 1 -d 0 -p ack -e 40 -c 1 -i 21 -a 1 -x {1.0 0.0 10 ------- null}
+ -t 0.561407999999999 -s 0 -d 1 -p tcp -e 1040 -c 1 -i 22 -a 1 -x {0.0 1.0 11 ------- null}
- -t 0.561407999999999 -s 0 -d 1 -p tcp -e 1040 -c 1 -i 22 -a 1 -x {0.0 1.0 11 ------- null}
h -t 0.561407999999999 -s 0 -d 1 -p tcp -e 1040 -c 1 -i 22 -a 1 -x {0.0 1.0 -1 ------- null}
r -t 0.565071999999999 -s 0 -d 1 -p tcp -e 1040 -c 1 -i 22 -a 1 -x {0.0 1.0 11 ------- null}
+ -t 0.565071999999999 -s 1 -d 0 -p ack -e 40 -c 1 -i 23 -a 1 -x {1.0 0.0 11 ------- null}
- -t 0.565071999999999 -s 1 -d 0 -p ack -e 40 -c 1 -i 23 -a 1 -x {1.0 0.0 11 ------- null}
h -t 0.565071999999999 -s 1 -d 0 -p ack -e 40 -c 1 -i 23 -a 1 -x {1.0 0.0 -1 ------- null}
r -t 0.567135999999999 -s 1 -d 0 -p ack -e 40 -c 1 -i 23 -a 1 -x {1.0 0.0 11 ------- null}
+ -t 0.567135999999999 -s 0 -d 1 -p tcp -e 1040 -c 1 -i 24 -a 1 -x {0.0 1.0 12 ------- null}
- -t 0.567135999999999 -s 0 -d 1 -p tcp -e 1040 -c 1 -i 24 -a 1 -x {0.0 1.0 12 ------- null}
h -t 0.567135999999999 -s 0 -d 1 -p tcp -e 1040 -c 1 -i 24 -a 1 -x {0.0 1.0 -1 ------- null}
r -t 0.570799999999999 -s 0 -d 1 -p tcp -e 1040 -c 1 -i 24 -a 1 -x {0.0 1.0 12 ------- null}
+ -t 0.570799999999999 -s 1 -d 0 -p ack -e 40 -c 1 -i 25 -a 1 -x {1.0 0.0 12 ------- null}
- -t 0.570799999999999 -s 1 -d 0 -p ack -e 40 -c 1 -i 25 -a 1 -x {1.0 0.0 12 ------- null}
h -t 0.570799999999999 -s 1 -d 0 -p ack -e 40 -c 1 -i 25 -a 1 -x {1.0 0.0 -1 ------- null}
r -t 0.572863999999999 -s 1 -d 0 -p ack -e 40 -c 1 -i 25 -a 1 -x {1.0 0.0 12 ------- null}
+ -t 0.572863999999999 -s 0 -d 1 -p tcp -e 1040 -c 1 -i 26 -a 1 -x {0.0 1.0 13 ------- null}
- -t 0.572863999999999 -s 0 -d 1 -p tcp -e 1040 -c 1 -i 26 -a 1 -x {0.0 1.0 13 ------- null}
h -t 0.572863999999999 -s 0 -d 1 -p tcp -e 1040 -c 1 -i 26 -a 1 -x {0.0 1.0 -1 ------- null}
r -t 0.576527999999999 -s 0 -d 1 -p tcp -e 1040 -c 1 -i 26 -a 1 -x {0.0 1.0 13 ------- null}
+ -t 0.576527999999999 -s 1 -d 0 -p ack -e 40 -c 1 -i 27 -a 1 -x {1.0 0.0 13 ------- null}
- -t 0.576527999999999 -s 1 -d 0 -p ack -e 40 -c 1 -i 27 -a 1 -x {1.0 0.0 13 ------- null}
h -t 0.576527999999999 -s 1 -d 0 -p ack -e 40 -c 1 -i 27 -a 1 -x {1.0 0.0 -1 ------- null}
r -t 0.578591999999999 -s 1 -d 0 -p ack -e 40 -c 1 -i 27 -a 1 -x {1.0 0.0 13 ------- null}
+ -t 0.578591999999999 -s 0 -d 1 -p tcp -e 1040 -c 1 -i 28 -a 1 -x {0.0 1.0 14 ------- null}
- -t 0.578591999999999 -s 0 -d 1 -p tcp -e 1040 -c 1 -i 28 -a 1 -x {0.0 1.0 14 ------- null}
h -t 0.578591999999999 -s 0 -d 1 -p tcp -e 1040 -c 1 -i 28 -a 1 -x {0.0 1.0 -1 ------- null}
r -t 0.582255999999999 -s 0 -d 1 -p tcp -e 1040 -c 1 -i 28 -a 1 -x {0.0 1.0 14 ------- null}
+ -t 0.582255999999999 -s 1 -d 0 -p ack -e 40 -c 1 -i 29 -a 1 -x {1.0 0.0 14 ------- null}
- -t 0.582255999999999 -s 1 -d 0 -p ack -e 40 -c 1 -i 29 -a 1 -x {1.0 0.0 14 ------- null}
h -t 0.582255999999999 -s 1 -d 0 -p ack -e 40 -c 1 -i 29 -a 1 -x {1.0 0.0 -1 ------- null}
r -t 0.584319999999999 -s 1 -d 0 -p ack -e 40 -c 1 -i 29 -a 1 -x {1.0 0.0 14 ------- null}
+ -t 0.584319999999999 -s 0 -d 1 -p tcp -e 1040 -c 1 -i 30 -a 1 -x {0.0 1.0 15 ------- null}
- -t 0.584319999999999 -s 0 -d 1 -p tcp -e 1040 -c 1 -i 30 -a 1 -x {0.0 1.0 15 ------- null}
h -t 0.584319999999999 -s 0 -d 1 -p tcp -e 1040 -c 1 -i 30 -a 1 -x {0.0 1.0 -1 ------- null}
r -t 0.587983999999999 -s 0 -d 1 -p tcp -e 1040 -c 1 -i 30 -a 1 -x {0.0 1.0 15 ------- null}
+ -t 0.587983999999999 -s 1 -d 0 -p ack -e 40 -c 1 -i 31 -a 1 -x {1.0 0.0 15 ------- null}
- -t 0.587983999999999 -s 1 -d 0 -p ack -e 40 -c 1 -i 31 -a 1 -x {1.0 0.0 15 ------- null}
h -t 0.587983999999999 -s 1 -d 0 -p ack -e 40 -c 1 -i 31 -a 1 -x {1.0 0.0 -1 ------- null}
r -t 0.590047999999999 -s 1 -d 0 -p ack -e 40 -c 1 -i 31 -a 1 -x {1.0 0.0 15 ------- null}
+ -t 0.590047999999999 -s 0 -d 1 -p tcp -e 1040 -c 1 -i 32 -a 1 -x {0.0 1.0 16 ------- null}
- -t 0.590047999999999 -s 0 -d 1 -p tcp -e 1040 -c 1 -i 32 -a 1 -x {0.0 1.0 16 ------- null}
h -t 0.590047999999999 -s 0 -d 1 -p tcp -e 1040 -c 1 -i 32 -a 1 -x {0.0 1.0 -1 ------- null}
r -t 0.593711999999999 -s 0 -d 1 -p tcp -e 1040 -c 1 -i 32 -a 1 -x {0.0 1.0 16 ------- null}
+ -t 0.593711999999999 -s 1 -d 0 -p ack -e 40 -c 1 -i 33 -a 1 -x {1.0 0.0 16 ------- null}
- -t 0.593711999999999 -s 1 -d 0 -p ack -e 40 -c 1 -i 33 -a 1 -x {1.0 0.0 16 ------- null}
h -t 0.593711999999999 -s 1 -d 0 -p ack -e 40 -c 1 -i 33 -a 1 -x {1.0 0.0 -1 ------- null}
r -t 0.595775999999999 -s 1 -d 0 -p ack -e 40 -c 1 -i 33 -a 1 -x {1.0 0.0 16 ------- null}
+ -t 0.595775999999999 -s 0 -d 1 -p tcp -e 1040 -c 1 -i 34 -a 1 -x {0.0 1.0 17 ------- null}
- -t 0.595775999999999 -s 0 -d 1 -p tcp -e 1040 -c 1 -i 34 -a 1 -x {0.0 1.0 17 ------- null}
h -t 0.595775999999999 -s 0 -d 1 -p tcp -e 1040 -c 1 -i 34 -a 1 -x {0.0 1.0 -1 ------- null}
r -t 0.599439999999999 -s 0 -d 1 -p tcp -e 1040 -c 1 -i 34 -a 1 -x {0.0 1.0 17 ------- null}
+ -t 0.599439999999999 -s 1 -d 0 -p ack -e 40 -c 1 -i 35 -a 1 -x {1.0 0.0 17 ------- null}
- -t 0.599439999999999 -s 1 -d 0 -p ack -e 40 -c 1 -i 35 -a 1 -x {1.0 0.0 17 ------- null}
h -t 0.599439999999999 -s 1 -d 0 -p ack -e 40 -c 1 -i 35 -a 1 -x {1.0 0.0 -1 ------- null}
r -t 0.601503999999999 -s 1 -d 0 -p ack -e 40 -c 1 -i 35 -a 1 -x {1.0 0.0 17 ------- null}
+ -t 0.601503999999999 -s 0 -d 1 -p tcp -e 1040 -c 1 -i 36 -a 1 -x {0.0 1.0 18 ------- null}
- -t 0.601503999999999 -s 0 -d 1 -p tcp -e 1040 -c 1 -i 36 -a 1 -x {0.0 1.0 18 ------- null}
h -t 0.601503999999999 -s 0 -d 1 -p tcp -e 1040 -c 1 -i 36 -a 1 -x {0.0 1.0 -1 ------- null}
r -t 0.605167999999999 -s 0 -d 1 -p tcp -e 1040 -c 1 -i 36 -a 1 -x {0.0 1.0 18 ------- null}
+ -t 0.605167999999999 -s 1 -d 0 -p ack -e 40 -c 1 -i 37 -a 1 -x {1.0 0.0 18 ------- null}
- -t 0.605167999999999 -s 1 -d 0 -p ack -e 40 -c 1 -i 37 -a 1 -x {1.0 0.0 18 ------- null}
h -t 0.605167999999999 -s 1 -d 0 -p ack -e 40 -c 1 -i 37 -a 1 -x {1.0 0.0 -1 ------- null}
r -t 0.607231999999999 -s 1 -d 0 -p ack -e 40 -c 1 -i 37 -a 1 -x {1.0 0.0 18 ------- null}
+ -t 0.607231999999999 -s 0 -d 1 -p tcp -e 1040 -c 1 -i 38 -a 1 -x {0.0 1.0 19 ------- null}
- -t 0.607231999999999 -s 0 -d 1 -p tcp -e 1040 -c 1 -i 38 -a 1 -x {0.0 1.0 19 ------- null}
h -t 0.607231999999999 -s 0 -d 1 -p tcp -e 1040 -c 1 -i 38 -a 1 -x {0.0 1.0 -1 ------- null}
r -t 0.610895999999999 -s 0 -d 1 -p tcp -e 1040 -c 1 -i 38 -a 1 -x {0.0 1.0 19 ------- null}
+ -t 0.610895999999999 -s 1 -d 0 -p ack -e 40 -c 1 -i 39 -a 1 -x {1.0 0.0 19 ------- null}
- -t 0.610895999999999 -s 1 -d 0 -p ack -e 40 -c 1 -i 39 -a 1 -x {1.0 0.0 19 ------- null}
h -t 0.610895999999999 -s 1 -d 0 -p ack -e 40 -c 1 -i 39 -a 1 -x {1.0 0.0 -1 ------- null}
r -t 0.612959999999999 -s 1 -d 0 -p ack -e 40 -c 1 -i 39 -a 1 -x {1.0 0.0 19 ------- null}
+ -t 0.612959999999999 -s 0 -d 1 -p tcp -e 1040 -c 1 -i 40 -a 1 -x {0.0 1.0 20 ------- null}
- -t 0.612959999999999 -s 0 -d 1 -p tcp -e 1040 -c 1 -i 40 -a 1 -x {0.0 1.0 20 ------- null}
h -t 0.612959999999999 -s 0 -d 1 -p tcp -e 1040 -c 1 -i 40 -a 1 -x {0.0 1.0 -1 ------- null}
r -t 0.616623999999999 -s 0 -d 1 -p tcp -e 1040 -c 1 -i 40 -a 1 -x {0.0 1.0 20 ------- null}
+ -t 0.616623999999999 -s 1 -d 0 -p ack -e 40 -c 1 -i 41 -a 1 -x {1.0 0.0 20 ------- null}
- -t 0.616623999999999 -s 1 -d 0 -p ack -e 40 -c 1 -i 41 -a 1 -x {1.0 0.0 20 ------- null}
h -t 0.616623999999999 -s 1 -d 0 -p ack -e 40 -c 1 -i 41 -a 1 -x {1.0 0.0 -1 ------- null}
r -t 0.618687999999999 -s 1 -d 0 -p ack -e 40 -c 1 -i 41 -a 1 -x {1.0 0.0 20 ------- null}
+ -t 0.618687999999999 -s 0 -d 1 -p tcp -e 1040 -c 1 -i 42 -a 1 -x {0.0 1.0 21 ------- null}
- -t 0.618687999999999 -s 0 -d 1 -p tcp -e 1040 -c 1 -i 42 -a 1 -x {0.0 1.0 21 ------- null}
h -t 0.618687999999999 -s 0 -d 1 -p tcp -e 1040 -c 1 -i 42 -a 1 -x {0.0 1.0 -1 ------- null}
r -t 0.622351999999999 -s 0 -d 1 -p tcp -e 1040 -c 1 -i 42 -a 1 -x {0.0 1.0 21 ------- null}
+ -t 0.622351999999999 -s 1 -d 0 -p ack -e 40 -c 1 -i 43 -a 1 -x {1.0 0.0 21 ------- null}
- -t 0.622351999999999 -s 1 -d 0 -p ack -e 40 -c 1 -i 43 -a 1 -x {1.0 0.0 21 ------- null}
h -t 0.622351999999999 -s 1 -d 0 -p ack -e 40 -c 1 -i 43 -a 1 -x {1.0 0.0 -1 ------- null}
r -t 0.624415999999999 -s 1 -d 0 -p ack -e 40 -c 1 -i 43 -a 1 -x {1.0 0.0 21 ------- null}
+ -t 0.624415999999999 -s 0 -d 1 -p tcp -e 1040 -c 1 -i 44 -a 1 -x {0.0 1.0 22 ------- null}
- -t 0.624415999999999 -s 0 -d 1 -p tcp -e 1040 -c 1 -i 44 -a 1 -x {0.0 1.0 22 ------- null}
h -t 0.624415999999999 -s 0 -d 1 -p tcp -e 1040 -c 1 -i 44 -a 1 -x {0.0 1.0 -1 ------- null}
r -t 0.628079999999999 -s 0 -d 1 -p tcp -e 1040 -c 1 -i 44 -a 1 -x {0.0 1.0 22 ------- null}
+ -t 0.628079999999999 -s 1 -d 0 -p ack -e 40 -c 1 -i 45 -a 1 -x {1.0 0.0 22 ------- null}
- -t 0.628079999999999 -s 1 -d 0 -p ack -e 40 -c 1 -i 45 -a 1 -x {1.0 0.0 22 ------- null}
h -t 0.628079999999999 -s 1 -d 0 -p ack -e 40 -c 1 -i 45 -a 1 -x {1.0 0.0 -1 ------- null}
r -t 0.630143999999999 -s 1 -d 0 -p ack -e 40 -c 1 -i 45 -a 1 -x {1.0 0.0 22 ------- null}
+ -t 0.630143999999999 -s 0 -d 1 -p tcp -e 1040 -c 1 -i 46 -a 1 -x {0.0 1.0 23 ------- null}
- -t 0.630143999999999 -s 0 -d 1 -p tcp -e 1040 -c 1 -i 46 -a 1 -x {0.0 1.0 23 ------- null}
h -t 0.630143999999999 -s 0 -d 1 -p tcp -e 1040 -c 1 -i 46 -a 1 -x {0.0 1.0 -1 ------- null}
r -t 0.633807999999999 -s 0 -d 1 -p tcp -e 1040 -c 1 -i 46 -a 1 -x {0.0 1.0 23 ------- null}
+ -t 0.633807999999999 -s 1 -d 0 -p ack -e 40 -c 1 -i 47 -a 1 -x {1.0 0.0 23 ------- null}
- -t 0.633807999999999 -s 1 -d 0 -p ack -e 40 -c 1 -i 47 -a 1 -x {1.0 0.0 23 ------- null}
h -t 0.633807999999999 -s 1 -d 0 -p ack -e 40 -c 1 -i 47 -a 1 -x {1.0 0.0 -1 ------- null}
r -t 0.635871999999999 -s 1 -d 0 -p ack -e 40 -c 1 -i 47 -a 1 -x {1.0 0.0 23 ------- null}
+ -t 0.635871999999999 -s 0 -d 1 -p tcp -e 1040 -c 1 -i 48 -a 1 -x {0.0 1.0 24 ------- null}
- -t 0.635871999999999 -s 0 -d 1 -p tcp -e 1040 -c 1 -i 48 -a 1 -x {0.0 1.0 24 ------- null}
h -t 0.635871999999999 -s 0 -d 1 -p tcp -e 1040 -c 1 -i 48 -a 1 -x {0.0 1.0 -1 ------- null}
r -t 0.639535999999999 -s 0 -d 1 -p tcp -e 1040 -c 1 -i 48 -a 1 -x {0.0 1.0 24 ------- null}
+ -t 0.639535999999999 -s 1 -d 0 -p ack -e 40 -c 1 -i 49 -a 1 -x {1.0 0.0 24 ------- null}
- -t 0.639535999999999 -s 1 -d 0 -p ack -e 40 -c 1 -i 49 -a 1 -x {1.0 0.0 24 ------- null}
h -t 0.639535999999999 -s 1 -d 0 -p ack -e 40 -c 1 -i 49 -a 1 -x {1.0 0.0 -1 ------- null}
r -t 0.641599999999999 -s 1 -d 0 -p ack -e 40 -c 1 -i 49 -a 1 -x {1.0 0.0 24 ------- null}
+ -t 0.641599999999999 -s 0 -d 1 -p tcp -e 1040 -c 1 -i 50 -a 1 -x {0.0 1.0 25 ------- null}
- -t 0.641599999999999 -s 0 -d 1 -p tcp -e 1040 -c 1 -i 50 -a 1 -x {0.0 1.0 25 ------- null}
h -t 0.641599999999999 -s 0 -d 1 -p tcp -e 1040 -c 1 -i 50 -a 1 -x {0.0 1.0 -1 ------- null}
r -t 0.645263999999999 -s 0 -d 1 -p tcp -e 1040 -c 1 -i 50 -a 1 -x {0.0 1.0 25 ------- null}
+ -t 0.645263999999999 -s 1 -d 0 -p ack -e 40 -c 1 -i 51 -a 1 -x {1.0 0.0 25 ------- null}
- -t 0.645263999999999 -s 1 -d 0 -p ack -e 40 -c 1 -i 51 -a 1 -x {1.0 0.0 25 ------- null}
h -t 0.645263999999999 -s 1 -d 0 -p ack -e 40 -c 1 -i 51 -a 1 -x {1.0 0.0 -1 ------- null}
r -t 0.647327999999999 -s 1 -d 0 -p ack -e 40 -c 1 -i 51 -a 1 -x {1.0 0.0 25 ------- null}
+ -t 0.647327999999999 -s 0 -d 1 -p tcp -e 1040 -c 1 -i 52 -a 1 -x {0.0 1.0 26 ------- null}
- -t 0.647327999999999 -s 0 -d 1 -p tcp -e 1040 -c 1 -i 52 -a 1 -x {0.0 1.0 26 ------- null}
h -t 0.647327999999999 -s 0 -d 1 -p tcp -e 1040 -c 1 -i 52 -a 1 -x {0.0 1.0 -1 ------- null}
r -t 0.650991999999999 -s 0 -d 1 -p tcp -e 1040 -c 1 -i 52 -a 1 -x {0.0 1.0 26 ------- null}
+ -t 0.650991999999999 -s 1 -d 0 -p ack -e 40 -c 1 -i 53 -a 1 -x {1.0 0.0 26 ------- null}
- -t 0.650991999999999 -s 1 -d 0 -p ack -e 40 -c 1 -i 53 -a 1 -x {1.0 0.0 26 ------- null}
h -t 0.650991999999999 -s 1 -d 0 -p ack -e 40 -c 1 -i 53 -a 1 -x {1.0 0.0 -1 ------- null}
r -t 0.653055999999999 -s 1 -d 0 -p ack -e 40 -c 1 -i 53 -a 1 -x {1.0 0.0 26 ------- null}
+ -t 0.653055999999999 -s 0 -d 1 -p tcp -e 1040 -c 1 -i 54 -a 1 -x {0.0 1.0 27 ------- null}
- -t 0.653055999999999 -s 0 -d 1 -p tcp -e 1040 -c 1 -i 54 -a 1 -x {0.0 1.0 27 ------- null}
h -t 0.653055999999999 -s 0 -d 1 -p tcp -e 1040 -c 1 -i 54 -a 1 -x {0.0 1.0 -1 ------- null}
r -t 0.656719999999999 -s 0 -d 1 -p tcp -e 1040 -c 1 -i 54 -a 1 -x {0.0 1.0 27 ------- null}
+ -t 0.656719999999999 -s 1 -d 0 -p ack -e 40 -c 1 -i 55 -a 1 -x {1.0 0.0 27 ------- null}
- -t 0.656719999999999 -s 1 -d 0 -p ack -e 40 -c 1 -i 55 -a 1 -x {1.0 0.0 27 ------- null}
h -t 0.656719999999999 -s 1 -d 0 -p ack -e 40 -c 1 -i 55 -a 1 -x {1.0 0.0 -1 ------- null}
r -t 0.658783999999999 -s 1 -d 0 -p ack -e 40 -c 1 -i 55 -a 1 -x {1.0 0.0 27 ------- null}
+ -t 0.658783999999999 -s 0 -d 1 -p tcp -e 1040 -c 1 -i 56 -a 1 -x {0.0 1.0 28 ------- null}
- -t 0.658783999999999 -s 0 -d 1 -p tcp -e 1040 -c 1 -i 56 -a 1 -x {0.0 1.0 28 ------- null}
h -t 0.658783999999999 -s 0 -d 1 -p tcp -e 1040 -c 1 -i 56 -a 1 -x {0.0 1.0 -1 ------- null}
r -t 0.662447999999999 -s 0 -d 1 -p tcp -e 1040 -c 1 -i 56 -a 1 -x {0.0 1.0 28 ------- null}
+ -t 0.662447999999999 -s 1 -d 0 -p ack -e 40 -c 1 -i 57 -a 1 -x {1.0 0.0 28 ------- null}
- -t 0.662447999999999 -s 1 -d 0 -p ack -e 40 -c 1 -i 57 -a 1 -x {1.0 0.0 28 ------- null}
h -t 0.662447999999999 -s 1 -d 0 -p ack -e 40 -c 1 -i 57 -a 1 -x {1.0 0.0 -1 ------- null}
r -t 0.664511999999999 -s 1 -d 0 -p ack -e 40 -c 1 -i 57 -a 1 -x {1.0 0.0 28 ------- null}
+ -t 0.664511999999999 -s 0 -d 1 -p tcp -e 1040 -c 1 -i 58 -a 1 -x {0.0 1.0 29 ------- null}
- -t 0.664511999999999 -s 0 -d 1 -p tcp -e 1040 -c 1 -i 58 -a 1 -x {0.0 1.0 29 ------- null}
h -t 0.664511999999999 -s 0 -d 1 -p tcp -e 1040 -c 1 -i 58 -a 1 -x {0.0 1.0 -1 ------- null}
r -t 0.668175999999999 -s 0 -d 1 -p tcp -e 1040 -c 1 -i 58 -a 1 -x {0.0 1.0 29 ------- null}
+ -t 0.668175999999999 -s 1 -d 0 -p ack -e 40 -c 1 -i 59 -a 1 -x {1.0 0.0 29 ------- null}
- -t 0.668175999999999 -s 1 -d 0 -p ack -e 40 -c 1 -i 59 -a 1 -x {1.0 0.0 29 ------- null}
h -t 0.668175999999999 -s 1 -d 0 -p ack -e 40 -c 1 -i 59 -a 1 -x {1.0 0.0 -1 ------- null}
r -t 0.670239999999999 -s 1 -d 0 -p ack -e 40 -c 1 -i 59 -a 1 -x {1.0 0.0 29 ------- null}
+ -t 0.670239999999999 -s 0 -d 1 -p tcp -e 1040 -c 1 -i 60 -a 1 -x {0.0 1.0 30 ------- null}
- -t 0.670239999999999 -s 0 -d 1 -p tcp -e 1040 -c 1 -i 60 -a 1 -x {0.0 1.0 30 ------- null}
h -t 0.670239999999999 -s 0 -d 1 -p tcp -e 1040 -c 1 -i 60 -a 1 -x {0.0 1.0 -1 ------- null}
r -t 0.673903999999999 -s 0 -d 1 -p tcp -e 1040 -c 1 -i 60 -a 1 -x {0.0 1.0 30 ------- null}
+ -t 0.673903999999999 -s 1 -d 0 -p ack -e 40 -c 1 -i 61 -a 1 -x {1.0 0.0 30 ------- null}
- -t 0.673903999999999 -s 1 -d 0 -p ack -e 40 -c 1 -i 61 -a 1 -x {1.0 0.0 30 ------- null}
h -t 0.673903999999999 -s 1 -d 0 -p ack -e 40 -c 1 -i 61 -a 1 -x {1.0 0.0 -1 ------- null}
r -t 0.675967999999999 -s 1 -d 0 -p ack -e 40 -c 1 -i 61 -a 1 -x {1.0 0.0 30 ------- null}
+ -t 0.675967999999999 -s 0 -d 1 -p tcp -e 1040 -c 1 -i 62 -a 1 -x {0.0 1.0 31 ------- null}
- -t 0.675967999999999 -s 0 -d 1 -p tcp -e 1040 -c 1 -i 62 -a 1 -x {0.0 1.0 31 ------- null}
h -t 0.675967999999999 -s 0 -d 1 -p tcp -e 1040 -c 1 -i 62 -a 1 -x {0.0 1.0 -1 ------- null}
r -t 0.679631999999999 -s 0 -d 1 -p tcp -e 1040 -c 1 -i 62 -a 1 -x {0.0 1.0 31 ------- null}
+ -t 0.679631999999999 -s 1 -d 0 -p ack -e 40 -c 1 -i 63 -a 1 -x {1.0 0.0 31 ------- null}
- -t 0.679631999999999 -s 1 -d 0 -p ack -e 40 -c 1 -i 63 -a 1 -x {1.0 0.0 31 ------- null}
h -t 0.679631999999999 -s 1 -d 0 -p ack -e 40 -c 1 -i 63 -a 1 -x {1.0 0.0 -1 ------- null}
r -t 0.681695999999999 -s 1 -d 0 -p ack -e 40 -c 1 -i 63 -a 1 -x {1.0 0.0 31 ------- null}
+ -t 0.681695999999999 -s 0 -d 1 -p tcp -e 1040 -c 1 -i 64 -a 1 -x {0.0 1.0 32 ------- null}
- -t 0.681695999999999 -s 0 -d 1 -p tcp -e 1040 -c 1 -i 64 -a 1 -x {0.0 1.0 32 ------- null}
h -t 0.681695999999999 -s 0 -d 1 -p tcp -e 1040 -c 1 -i 64 -a 1 -x {0.0 1.0 -1 ------- null}
r -t 0.685359999999999 -s 0 -d 1 -p tcp -e 1040 -c 1 -i 64 -a 1 -x {0.0 1.0 32 ------- null}
+ -t 0.685359999999999 -s 1 -d 0 -p ack -e 40 -c 1 -i 65 -a 1 -x {1.0 0.0 32 ------- null}
- -t 0.685359999999999 -s 1 -d 0 -p ack -e 40 -c 1 -i 65 -a 1 -x {1.0 0.0 32 ------- null}
h -t 0.685359999999999 -s 1 -d 0 -p ack -e 40 -c 1 -i 65 -a 1 -x {1.0 0.0 -1 ------- null}
r -t 0.687423999999998 -s 1 -d 0 -p ack -e 40 -c 1 -i 65 -a 1 -x {1.0 0.0 32 ------- null}
+ -t 0.687423999999998 -s 0 -d 1 -p tcp -e 1040 -c 1 -i 66 -a 1 -x {0.0 1.0 33 ------- null}
- -t 0.687423999999998 -s 0 -d 1 -p tcp -e 1040 -c 1 -i 66 -a 1 -x {0.0 1.0 33 ------- null}
h -t 0.687423999999998 -s 0 -d 1 -p tcp -e 1040 -c 1 -i 66 -a 1 -x {0.0 1.0 -1 ------- null}
r -t 0.691087999999998 -s 0 -d 1 -p tcp -e 1040 -c 1 -i 66 -a 1 -x {0.0 1.0 33 ------- null}
+ -t 0.691087999999998 -s 1 -d 0 -p ack -e 40 -c 1 -i 67 -a 1 -x {1.0 0.0 33 ------- null}
- -t 0.691087999999998 -s 1 -d 0 -p ack -e 40 -c 1 -i 67 -a 1 -x {1.0 0.0 33 ------- null}
h -t 0.691087999999998 -s 1 -d 0 -p ack -e 40 -c 1 -i 67 -a 1 -x {1.0 0.0 -1 ------- null}
r -t 0.693151999999998 -s 1 -d 0 -p ack -e 40 -c 1 -i 67 -a 1 -x {1.0 0.0 33 ------- null}
+ -t 0.693151999999998 -s 0 -d 1 -p tcp -e 1040 -c 1 -i 68 -a 1 -x {0.0 1.0 34 ------- null}
- -t 0.693151999999998 -s 0 -d 1 -p tcp -e 1040 -c 1 -i 68 -a 1 -x {0.0 1.0 34 ------- null}
h -t 0.693151999999998 -s 0 -d 1 -p tcp -e 1040 -c 1 -i 68 -a 1 -x {0.0 1.0 -1 ------- null}
r -t 0.696815999999998 -s 0 -d 1 -p tcp -e 1040 -c 1 -i 68 -a 1 -x {0.0 1.0 34 ------- null}
+ -t 0.696815999999998 -s 1 -d 0 -p ack -e 40 -c 1 -i 69 -a 1 -x {1.0 0.0 34 ------- null}
- -t 0.696815999999998 -s 1 -d 0 -p ack -e 40 -c 1 -i 69 -a 1 -x {1.0 0.0 34 ------- null}
h -t 0.696815999999998 -s 1 -d 0 -p ack -e 40 -c 1 -i 69 -a 1 -x {1.0 0.0 -1 ------- null}
r -t 0.698879999999998 -s 1 -d 0 -p ack -e 40 -c 1 -i 69 -a 1 -x {1.0 0.0 34 ------- null}
+ -t 0.698879999999998 -s 0 -d 1 -p tcp -e 1040 -c 1 -i 70 -a 1 -x {0.0 1.0 35 ------- null}
- -t 0.698879999999998 -s 0 -d 1 -p tcp -e 1040 -c 1 -i 70 -a 1 -x {0.0 1.0 35 ------- null}
h -t 0.698879999999998 -s 0 -d 1 -p tcp -e 1040 -c 1 -i 70 -a 1 -x {0.0 1.0 -1 ------- null}
r -t 0.702543999999998 -s 0 -d 1 -p tcp -e 1040 -c 1 -i 70 -a 1 -x {0.0 1.0 35 ------- null}
+ -t 0.702543999999998 -s 1 -d 0 -p ack -e 40 -c 1 -i 71 -a 1 -x {1.0 0.0 35 ------- null}
- -t 0.702543999999998 -s 1 -d 0 -p ack -e 40 -c 1 -i 71 -a 1 -x {1.0 0.0 35 ------- null}
h -t 0.702543999999998 -s 1 -d 0 -p ack -e 40 -c 1 -i 71 -a 1 -x {1.0 0.0 -1 ------- null}
r -t 0.704607999999998 -s 1 -d 0 -p ack -e 40 -c 1 -i 71 -a 1 -x {1.0 0.0 35 ------- null}
+ -t 0.704607999999998 -s 0 -d 1 -p tcp -e 1040 -c 1 -i 72 -a 1 -x {0.0 1.0 36 ------- null}
- -t 0.704607999999998 -s 0 -d 1 -p tcp -e 1040 -c 1 -i 72 -a 1 -x {0.0 1.0 36 ------- null}
h -t 0.704607999999998 -s 0 -d 1 -p tcp -e 1040 -c 1 -i 72 -a 1 -x {0.0 1.0 -1 ------- null}
r -t 0.708271999999998 -s 0 -d 1 -p tcp -e 1040 -c 1 -i 72 -a 1 -x {0.0 1.0 36 ------- null}
+ -t 0.708271999999998 -s 1 -d 0 -p ack -e 40 -c 1 -i 73 -a 1 -x {1.0 0.0 36 ------- null}
- -t 0.708271999999998 -s 1 -d 0 -p ack -e 40 -c 1 -i 73 -a 1 -x {1.0 0.0 36 ------- null}
h -t 0.708271999999998 -s 1 -d 0 -p ack -e 40 -c 1 -i 73 -a 1 -x {1.0 0.0 -1 ------- null}
r -t 0.710335999999998 -s 1 -d 0 -p ack -e 40 -c 1 -i 73 -a 1 -x {1.0 0.0 36 ------- null}
+ -t 0.710335999999998 -s 0 -d 1 -p tcp -e 1040 -c 1 -i 74 -a 1 -x {0.0 1.0 37 ------- null}
- -t 0.710335999999998 -s 0 -d 1 -p tcp -e 1040 -c 1 -i 74 -a 1 -x {0.0 1.0 37 ------- null}
h -t 0.710335999999998 -s 0 -d 1 -p tcp -e 1040 -c 1 -i 74 -a 1 -x {0.0 1.0 -1 ------- null}
r -t 0.713999999999998 -s 0 -d 1 -p tcp -e 1040 -c 1 -i 74 -a 1 -x {0.0 1.0 37 ------- null}
+ -t 0.713999999999998 -s 1 -d 0 -p ack -e 40 -c 1 -i 75 -a 1 -x {1.0 0.0 37 ------- null}
- -t 0.713999999999998 -s 1 -d 0 -p ack -e 40 -c 1 -i 75 -a 1 -x {1.0 0.0 37 ------- null}
h -t 0.713999999999998 -s 1 -d 0 -p ack -e 40 -c 1 -i 75 -a 1 -x {1.0 0.0 -1 ------- null}
r -t 0.716063999999998 -s 1 -d 0 -p ack -e 40 -c 1 -i 75 -a 1 -x {1.0 0.0 37 ------- null}
+ -t 0.716063999999998 -s 0 -d 1 -p tcp -e 1040 -c 1 -i 76 -a 1 -x {0.0 1.0 38 ------- null}
- -t 0.716063999999998 -s 0 -d 1 -p tcp -e 1040 -c 1 -i 76 -a 1 -x {0.0 1.0 38 ------- null}
h -t 0.716063999999998 -s 0 -d 1 -p tcp -e 1040 -c 1 -i 76 -a 1 -x {0.0 1.0 -1 ------- null}
r -t 0.719727999999998 -s 0 -d 1 -p tcp -e 1040 -c 1 -i 76 -a 1 -x {0.0 1.0 38 ------- null}
+ -t 0.719727999999998 -s 1 -d 0 -p ack -e 40 -c 1 -i 77 -a 1 -x {1.0 0.0 38 ------- null}
- -t 0.719727999999998 -s 1 -d 0 -p ack -e 40 -c 1 -i 77 -a 1 -x {1.0 0.0 38 ------- null}
h -t 0.719727999999998 -s 1 -d 0 -p ack -e 40 -c 1 -i 77 -a 1 -x {1.0 0.0 -1 ------- null}
r -t 0.721791999999998 -s 1 -d 0 -p ack -e 40 -c 1 -i 77 -a 1 -x {1.0 0.0 38 ------- null}
+ -t 0.721791999999998 -s 0 -d 1 -p tcp -e 1040 -c 1 -i 78 -a 1 -x {0.0 1.0 39 ------- null}
- -t 0.721791999999998 -s 0 -d 1 -p tcp -e 1040 -c 1 -i 78 -a 1 -x {0.0 1.0 39 ------- null}
h -t 0.721791999999998 -s 0 -d 1 -p tcp -e 1040 -c 1 -i 78 -a 1 -x {0.0 1.0 -1 ------- null}
r -t 0.725455999999998 -s 0 -d 1 -p tcp -e 1040 -c 1 -i 78 -a 1 -x {0.0 1.0 39 ------- null}
+ -t 0.725455999999998 -s 1 -d 0 -p ack -e 40 -c 1 -i 79 -a 1 -x {1.0 0.0 39 ------- null}
- -t 0.725455999999998 -s 1 -d 0 -p ack -e 40 -c 1 -i 79 -a 1 -x {1.0 0.0 39 ------- null}
h -t 0.725455999999998 -s 1 -d 0 -p ack -e 40 -c 1 -i 79 -a 1 -x {1.0 0.0 -1 ------- null}
r -t 0.727519999999998 -s 1 -d 0 -p ack -e 40 -c 1 -i 79 -a 1 -x {1.0 0.0 39 ------- null}
+ -t 0.727519999999998 -s 0 -d 1 -p tcp -e 1040 -c 1 -i 80 -a 1 -x {0.0 1.0 40 ------- null}
- -t 0.727519999999998 -s 0 -d 1 -p tcp -e 1040 -c 1 -i 80 -a 1 -x {0.0 1.0 40 ------- null}
h -t 0.727519999999998 -s 0 -d 1 -p tcp -e 1040 -c 1 -i 80 -a 1 -x {0.0 1.0 -1 ------- null}
r -t 0.731183999999998 -s 0 -d 1 -p tcp -e 1040 -c 1 -i 80 -a 1 -x {0.0 1.0 40 ------- null}
+ -t 0.731183999999998 -s 1 -d 0 -p ack -e 40 -c 1 -i 81 -a 1 -x {1.0 0.0 40 ------- null}
- -t 0.731183999999998 -s 1 -d 0 -p ack -e 40 -c 1 -i 81 -a 1 -x {1.0 0.0 40 ------- null}
h -t 0.731183999999998 -s 1 -d 0 -p ack -e 40 -c 1 -i 81 -a 1 -x {1.0 0.0 -1 ------- null}
r -t 0.733247999999998 -s 1 -d 0 -p ack -e 40 -c 1 -i 81 -a 1 -x {1.0 0.0 40 ------- null}
+ -t 0.733247999999998 -s 0 -d 1 -p tcp -e 1040 -c 1 -i 82 -a 1 -x {0.0 1.0 41 ------- null}
- -t 0.733247999999998 -s 0 -d 1 -p tcp -e 1040 -c 1 -i 82 -a 1 -x {0.0 1.0 41 ------- null}
h -t 0.733247999999998 -s 0 -d 1 -p tcp -e 1040 -c 1 -i 82 -a 1 -x {0.0 1.0 -1 ------- null}